 Entering Gaussian System, Link 0=gdv
 Input=ammonia_casscf_pop.com
 Output=ammonia_casscf_pop.log
 Initial command:
 /sw/contrib/gaussian/gdv/J14pnew/gdv/l1.exe "/gscratch/scrubbed/koulil/Gau-14603.inp" -scrdir="/gscratch/scrubbed/koulil/"
 Entering Link 1 = /sw/contrib/gaussian/gdv/J14pnew/gdv/l1.exe PID=     14604.
  
 Copyright (c) 1988-2021, Gaussian, Inc.  All Rights Reserved.
  
 This is the private, development version of
 the Gaussian(R) DV system of programs. It is based on
 the Gaussian(R) 16 system (copyright 2016, Gaussian, Inc.),
 the Gaussian(R) 09 system (copyright 2009, Gaussian, Inc.),
 the Gaussian(R) 03 system (copyright 2003, Gaussian, Inc.),
 the Gaussian(R) 98 system (copyright 1998, Gaussian, Inc.),
 the Gaussian(R) 94 system (copyright 1995, Gaussian, Inc.),
 the Gaussian 92(TM) system (copyright 1992, Gaussian, Inc.),
 the Gaussian 90(TM) system (copyright 1990, Gaussian, Inc.),
 the Gaussian 88(TM) system (copyright 1988, Gaussian, Inc.),
 the Gaussian 86(TM) system (copyright 1986, Carnegie Mellon
 University), and the Gaussian 82(TM) system (copyright 1983,
 Carnegie Mellon University). Gaussian is a federally registered
 trademark of Gaussian, Inc.
  
 This software contains proprietary and confidential information,
 including trade secrets, belonging to Gaussian, Inc.
  
 This software is provided under written license and may be
 used, copied, transmitted, or stored only in accord with that
 written license.
  
 The following legend is applicable only to US Government
 contracts under FAR:
  
                    RESTRICTED RIGHTS LEGEND
  
 Use, reproduction and disclosure by the US Government is
 subject to restrictions as set forth in subparagraphs (a)
 and (c) of the Commercial Computer Software - Restricted
 Rights clause in FAR 52.227-19.
  
 Gaussian, Inc.
 340 Quinnipiac St., Bldg. 40, Wallingford CT 06492
  
  
 ---------------------------------------------------------------
 Warning -- This program may not be used in any manner that
 competes with the business of Gaussian, Inc. or will provide
 assistance to any competitor of Gaussian, Inc.  The licensee
 of this program is prohibited from giving any competitor of
 Gaussian, Inc. access to this program.  By using this program,
 the user acknowledges that Gaussian, Inc. is engaged in the
 business of creating and licensing software in the field of
 computational chemistry and represents and warrants to the
 licensee that it is not a competitor of Gaussian, Inc. and that
 it will not use this program in any manner prohibited above.
 ---------------------------------------------------------------
  

 Cite this work as:
 Gaussian Development Version, Revision J.14+,
 M. J. Frisch, G. W. Trucks, H. B. Schlegel, G. E. Scuseria, 
 M. A. Robb, J. R. Cheeseman, G. Scalmani, V. Barone, 
 G. A. Petersson, H. Nakatsuji, X. Li, A. V. Marenich, M. Caricato, 
 J. Bloino, B. G. Janesko, J. Zheng, R. Gomperts, B. Mennucci, 
 H. P. Hratchian, J. V. Ortiz, A. F. Izmaylov, J. L. Sonnenberg, 
 D. Williams-Young, F. Ding, F. Lipparini, F. Egidi, J. Goings, 
 B. Peng, A. Petrone, T. Henderson, D. Ranasinghe, V. G. Zakrzewski, 
 J. Gao, N. Rega, G. Zheng, W. Liang, M. Hada, M. Ehara, K. Toyota, 
 R. Fukuda, J. Hasegawa, M. Ishida, T. Nakajima, Y. Honda, O. Kitao, 
 H. Nakai, T. Vreven, K. Throssell, J. A. Montgomery, Jr., 
 J. E. Peralta, F. Ogliaro, M. J. Bearpark, J. J. Heyd, 
 E. N. Brothers, K. N. Kudin, V. N. Staroverov, T. A. Keith, 
 R. Kobayashi, J. Normand, K. Raghavachari, A. P. Rendell, 
 J. C. Burant, S. S. Iyengar, J. Tomasi, M. Cossi, J. M. Millam, 
 M. Klene, C. Adamo, R. Cammi, J. W. Ochterski, R. L. Martin, 
 K. Morokuma, O. Farkas, J. B. Foresman, and D. J. Fox, 
 Gaussian, Inc., Wallingford CT, 2020.
 
 *******************************************
 Gaussian DV:  ES64L-GDVRevJ.14+  3-Jan-2021
                  5-Apr-2023 
 *******************************************
 %chk=ammonia_casscf.chk
 %mem=50GB
 %nprocshared=28
 Will use up to   28 processors via shared memory.
 ----------------------------------------------------------------------
 #p nonstd 1/29=7,38=1,172=1/1; 2/12=2,15=1,40=1/2; 3/5=7,6=2,11=9,24=1
 00,25=1,30=1,33=1,91=6,116=7/1,2,3; 4/5=1/1; 6/7=3,28=1/1; 99/5=1,9=1/
 99;
 ----------------------------------------------------------------------
 1/29=7,38=1,172=1/1;
 2/12=2,15=1,40=1/2;
 3/5=7,6=2,11=9,24=100,25=1,30=1,33=1,91=6,116=7/1,2,3;
 4/5=1/1;
 6/7=3,28=1/1;
 99/5=1,9=1/99;
 Leave Link    1 at Wed Apr  5 10:34:27 2023, MaxMem=  6710886400 cpu:              12.6 elap:               0.5
 (Enter /sw/contrib/gaussian/gdv/J14pnew/gdv/l101.exe)
 Structure from the checkpoint file:  "ammonia_casscf.chk"
 -------
 Ammonia
 -------
 Charge =  0 Multiplicity = 1
 Z-Matrix found in chk file.
 N,0,0.,0.,0.
 H,0,0.,-0.9377,-0.3816
 H,0,0.8121,0.4689,-0.3816
 H,0,-0.8121,0.4689,-0.3816
 Recover connectivity data from disk.
 ITRead=  0  0  0  0
 MicOpt= -1 -1 -1 -1
 NAtoms=      4 NQM=        4 NQMF=       0 NMMI=      0 NMMIF=      0
                NMic=       0 NMicF=      0.
                    Isotopes and Nuclear Properties:
 (Nuclear quadrupole moments (NQMom) in fm**2, nuclear magnetic moments (NMagM)
  in nuclear magnetons)

  Atom         1           2           3           4
 IAtWgt=          14           1           1           1
 AtmWgt=  14.0030740   1.0078250   1.0078250   1.0078250
 NucSpn=           2           1           1           1
 AtZEff=   4.5500000   1.0000000   1.0000000   1.0000000
 NQMom=    2.0440000   0.0000000   0.0000000   0.0000000
 NMagM=    0.4037610   2.7928460   2.7928460   2.7928460
 AtZNuc=   7.0000000   1.0000000   1.0000000   1.0000000
 Leave Link  101 at Wed Apr  5 10:34:28 2023, MaxMem=  6710886400 cpu:               3.5 elap:               0.2
 (Enter /sw/contrib/gaussian/gdv/J14pnew/gdv/l202.exe)
                          Input orientation:                          
 ---------------------------------------------------------------------
 Center     Atomic      Atomic             Coordinates (Angstroms)
 Number     Number       Type             X           Y           Z
 ---------------------------------------------------------------------
      1          7           0        0.000000    0.000000    0.000000
      2          1           0        0.000000   -0.937700   -0.381600
      3          1           0        0.812100    0.468900   -0.381600
      4          1           0       -0.812100    0.468900   -0.381600
 ---------------------------------------------------------------------
                    Distance matrix (angstroms):
                    1          2          3          4
     1  N    0.000000
     2  H    1.012373   0.000000
     3  H    1.012419   1.624201   0.000000
     4  H    1.012419   1.624201   1.624200   0.000000
 Symmetry turned off by external request.
 Stoichiometry    H3N
 Framework group  CS[SG(HN),X(H2)]
 Deg. of freedom     4
 Full point group                 CS      NOp   2
 Rotational constants (GHZ):         298.7885548         298.7880402         190.0870664
 Leave Link  202 at Wed Apr  5 10:34:28 2023, MaxMem=  6710886400 cpu:               0.6 elap:               0.1
 (Enter /sw/contrib/gaussian/gdv/J14pnew/gdv/l301.exe)
                         Coordinates in L301:                         
 ---------------------------------------------------------------------
 Center     Atomic      Atomic             Coordinates (Angstroms)
 Number     Number       Type             X           Y           Z
 ---------------------------------------------------------------------
      1          7           0        0.000000    0.000000    0.000000
      2          1           0        0.000000   -0.937700   -0.381600
      3          1           0        0.812100    0.468900   -0.381600
      4          1           0       -0.812100    0.468900   -0.381600
 ---------------------------------------------------------------------
 Basis read from chk: "ammonia_casscf.chk" (5D, 7F)
 No pseudopotential information found on chk file.
    15 AO functions
 AO basis set (Overlap normalization):
 Atom N1       Shell     1 S   6     bf    1 -     1          0.000000000000          0.000000000000          0.000000000000
      0.4173511460D+04  0.1834772160D-02
      0.6274579110D+03  0.1399462700D-01
      0.1429020930D+03  0.6858655181D-01
      0.4023432930D+02  0.2322408730D+00
      0.1282021290D+02  0.4690699481D+00
      0.4390437010D+01  0.3604551991D+00
 Atom N1       Shell     2 SP   3    bf    2 -     5          0.000000000000          0.000000000000          0.000000000000
      0.1162636186D+02 -0.1149611817D+00  0.6757974388D-01
      0.2716279807D+01 -0.1691174786D+00  0.3239072959D+00
      0.7722183966D+00  0.1145851947D+01  0.7408951398D+00
 Atom N1       Shell     3 SP   1    bf    6 -     9          0.000000000000          0.000000000000          0.000000000000
      0.2120314975D+00  0.1000000000D+01  0.1000000000D+01
 Atom H2       Shell     4 S   3     bf   10 -    10          0.000000000000         -1.771996187005         -0.721119489134
      0.1873113696D+02  0.3349460434D-01
      0.2825394365D+01  0.2347269535D+00
      0.6401216923D+00  0.8137573261D+00
 Atom H2       Shell     5 S   1     bf   11 -    11          0.000000000000         -1.771996187005         -0.721119489134
      0.1612777588D+00  0.1000000000D+01
 Atom H3       Shell     6 S   3     bf   12 -    12          1.534646585759          0.886092579809         -0.721119489134
      0.1873113696D+02  0.3349460434D-01
      0.2825394365D+01  0.2347269535D+00
      0.6401216923D+00  0.8137573261D+00
 Atom H3       Shell     7 S   1     bf   13 -    13          1.534646585759          0.886092579809         -0.721119489134
      0.1612777588D+00  0.1000000000D+01
 Atom H4       Shell     8 S   3     bf   14 -    14         -1.534646585759          0.886092579809         -0.721119489134
      0.1873113696D+02  0.3349460434D-01
      0.2825394365D+01  0.2347269535D+00
      0.6401216923D+00  0.8137573261D+00
 Atom H4       Shell     9 S   1     bf   15 -    15         -1.534646585759          0.886092579809         -0.721119489134
      0.1612777588D+00  0.1000000000D+01
 LdAtmC:  AtmChg=     7.000000     1.000000     1.000000     1.000000
 GetPMM: IRwPM=    824 LRwPM=      0 LPMAll=      2
 AtZEff=     -4.5500000     -1.0000000     -1.0000000     -1.0000000
    15 basis functions,    34 primitive gaussians,    15 cartesian basis functions
     5 alpha electrons        5 beta electrons
       nuclear repulsion energy        11.9539937291 Hartrees.
 IS=     1 IAt=     1 ISR=     1 T=0 IP=      1 IndIP=      1 IndIPD=      0 C=  6.789979D-01  0.000000D+00                             NZ=T
 IS=     1 IAt=     1 ISR=     1 T=0 IP=      2 IndIP=      2 IndIPD=      1 C=  1.250431D+00  0.000000D+00                             NZ=T
 IS=     1 IAt=     1 ISR=     1 T=0 IP=      3 IndIP=      3 IndIPD=      2 C=  2.020356D+00  0.000000D+00                             NZ=T
 IS=     1 IAt=     1 ISR=     1 T=0 IP=      4 IndIP=      4 IndIPD=      3 C=  2.644212D+00  0.000000D+00                             NZ=T
 IS=     1 IAt=     1 ISR=     1 T=0 IP=      5 IndIP=      5 IndIPD=      4 C=  2.265005D+00  0.000000D+00                             NZ=T
 IS=     1 IAt=     1 ISR=     1 T=0 IP=      6 IndIP=      6 IndIPD=      5 C=  7.791879D-01  0.000000D+00                             NZ=T
 IS=     2 IAt=     1 ISR=     2 T=1 IP=      1 IndIP=      7 IndIPD=      0 C= -5.158747D-01  2.068052D+00                             NZ=T
 IS=     2 IAt=     1 ISR=     2 T=1 IP=      2 IndIP=      8 IndIPD=      1 C= -2.550231D-01  1.610011D+00                             NZ=T
 IS=     2 IAt=     1 ISR=     2 T=1 IP=      3 IndIP=      9 IndIPD=      2 C=  6.727345D-01  7.644904D-01                             NZ=T
 IS=     3 IAt=     1 ISR=     3 T=1 IP=      1 IndIP=     10 IndIPD=      0 C=  2.226950D-01  2.050881D-01                             NZ=T
 IS=     4 IAt=     2 ISR=     1 T=0 IP=      1 IndIP=     11 IndIPD=      0 C=  2.149354D-01  0.000000D+00                             NZ=T
 IS=     4 IAt=     2 ISR=     1 T=0 IP=      2 IndIP=     12 IndIPD=      1 C=  3.645712D-01  0.000000D+00                             NZ=T
 IS=     4 IAt=     2 ISR=     1 T=0 IP=      3 IndIP=     13 IndIPD=      2 C=  4.150514D-01  0.000000D+00                             NZ=T
 IS=     5 IAt=     2 ISR=     2 T=0 IP=      1 IndIP=     14 IndIPD=      0 C=  1.813806D-01  0.000000D+00                             NZ=T
 IS=     6 IAt=     3 ISR=     1 T=0 IP=      1 IndIP=     15 IndIPD=      0 C=  2.149354D-01  0.000000D+00                             NZ=T
 IS=     6 IAt=     3 ISR=     1 T=0 IP=      2 IndIP=     16 IndIPD=      1 C=  3.645712D-01  0.000000D+00                             NZ=T
 IS=     6 IAt=     3 ISR=     1 T=0 IP=      3 IndIP=     17 IndIPD=      2 C=  4.150514D-01  0.000000D+00                             NZ=T
 IS=     7 IAt=     3 ISR=     2 T=0 IP=      1 IndIP=     18 IndIPD=      0 C=  1.813806D-01  0.000000D+00                             NZ=T
 IS=     8 IAt=     4 ISR=     1 T=0 IP=      1 IndIP=     19 IndIPD=      0 C=  2.149354D-01  0.000000D+00                             NZ=T
 IS=     8 IAt=     4 ISR=     1 T=0 IP=      2 IndIP=     20 IndIPD=      1 C=  3.645712D-01  0.000000D+00                             NZ=T
 IS=     8 IAt=     4 ISR=     1 T=0 IP=      3 IndIP=     21 IndIPD=      2 C=  4.150514D-01  0.000000D+00                             NZ=T
 IS=     9 IAt=     4 ISR=     2 T=0 IP=      1 IndIP=     22 IndIPD=      0 C=  1.813806D-01  0.000000D+00                             NZ=T
 IExCor=       0 DFT=F Ex=HF Corr=None N6=None ScaHFX=  1.000000
 ScaDFX=  1.000000  1.000000  1.000000  1.000000  1.000000  0.000000
 ScaDFX=  0.000000  0.000000  0.000000  0.000000  0.000000  0.000000
 IRadAn=      5 IRanWt=     -1 IRanGd=            0 ICorTp=0 IEmpDi=  4
 NAtoms=    4 NActive=    4 NUniq=    4 SFac= 1.00D+00 NAtFMM=   60 NAOKFM=F Big=F
 Integral buffers will be    131072 words long.
 Raffenetti 3 integral format.
 Two-electron integral symmetry is turned off.
 Nuclear density basis in /B/:
 Density basis set (Raw primitives coeffs):
 Atom N1       Shell     1 S   1     bf    1 -     1          0.000000000000          0.000000000000          0.000000000000
      0.6286560668D+09  0.1981494620D+14
 Atom H2       Shell     2 S   1     bf    2 -     2          0.000000000000         -1.771996187005         -0.721119489134
      0.2124823611D+10  0.1758974390D+14
 Atom H3       Shell     3 S   1     bf    3 -     3          1.534646585759          0.886092579809         -0.721119489134
      0.2124823611D+10  0.1758974390D+14
 Atom H4       Shell     4 S   1     bf    4 -     4         -1.534646585759          0.886092579809         -0.721119489134
      0.2124823611D+10  0.1758974390D+14
 FoFCou: FMM=F IPFlag=           0 FMFlag=           0 FMFlg1=           0
         NFxFlg=           0 DoJE=F BraDBF=T KetDBF=T FulRan=T
         wScrn=  0.000000 ICntrl=       600 IOpCl=  3 I1Cent=           6 NGrid=           0
         NMat0=    1 NMatS0=      4 NMatT0=    0 NMatD0=    1 NMtDS0=    0 NMtDT0=    0
 Symmetry not used in FoFCou.
 FoFCou:  KetSym=T NOpSet=  1 NOpAb=1 NOp=  1.
 FoFCou:  CnvScl= 1.00D+00 Thresh= 1.00D-12 IAcrcy=      10.
 FoFCou: LinMIO=F DoNuc=F BraDBF=T KetDBF=T HaveP=F PDBF=F HaveZ=F HaveW=F
         NIJTC =       0 NIJTAt=       0 NIJTCD=       1 NIJTT =       1
         IJTBeg=       1 IJTEnd=       1 KLTBeg=       1 KLTEnd=       1
         IPTBeg=       1 IPTEnd=       1 IPTBCv=       1 IPTECv=       1
         IZTBeg=       1 IZTEnd=       0 IZTBCv=       1 IZTECv=       1
         IWTBeg=       1 IWTEnd=       1 IWTBCv=       1 IWTECv=       1
         INTBeg=       1 INTEnd=       0 IFTBCv=       1 IFTECv=       1
 NCel replicated for PrismC:     1
 CoulSu-InSpLW:  IPartL=    0 NPrtUS=   28 NPrtUL=    1 DoSpLW=F IThBeg=    0 IThEnd=   27 NThAct=   28.
 CoulSu:  IncTry=  1024 NBBP=             10 NTPThr=   100 NPartT=   28 Incr=           1 LDynOK=F GPUOK=F.
 CoulSu:  NPrtUS=  28 ThrOK=T IAlg=2 LenDen=           0 LWGrdD=           0 DoCopy=F ISkipM=0
          DoSpLW=F IThBeg=    0 IThEnd=   27.
 Enter PrismC:  IPart=  0 JobTyp=20 DoJE=F Cont=F.
 PrismC:  IPart=     0 DynPar=F LinDyn=F Incr=           1 UseFst=F UseS4=T ISplat=1.
 Enter PrismC:  IPart= 12 JobTyp=20 DoJE=F Cont=F.
 PrismC was handed   239673907 working-precision words and     4 shell-pairs
 Enter PrismC:  IPart= 23 JobTyp=20 DoJE=F Cont=F.
 PrismC:  IPart=    12 DynPar=F LinDyn=F Incr=           1 UseFst=F UseS4=T ISplat=1.
 PrismC was handed   239673907 working-precision words and     4 shell-pairs
 PrismC:  IPart=    23 DynPar=F LinDyn=F Incr=           1 UseFst=F UseS4=T ISplat=1.
 PrismC was handed   239673907 working-precision words and     4 shell-pairs
 Enter PrismC:  IPart= 10 JobTyp=20 DoJE=F Cont=F.
 Enter PrismC:  IPart= 17 JobTyp=20 DoJE=F Cont=F.
 PrismC:  IPart=    10 DynPar=F LinDyn=F Incr=           1 UseFst=F UseS4=T ISplat=1.
 Enter PrismC:  IPart= 14 JobTyp=20 DoJE=F Cont=F.
 PrismC was handed   239673907 working-precision words and     4 shell-pairs
 PrismC:  IPart=    17 DynPar=F LinDyn=F Incr=           1 UseFst=F UseS4=T ISplat=1.
 PrismC was handed   239673907 working-precision words and     4 shell-pairs
 PrismC:  IPart=    14 DynPar=F LinDyn=F Incr=           1 UseFst=F UseS4=T ISplat=1.
 PrismC was handed   239673907 working-precision words and     4 shell-pairs
 Enter PrismC:  IPart=  1 JobTyp=20 DoJE=F Cont=F.
 Enter PrismC:  IPart= 15 JobTyp=20 DoJE=F Cont=F.
 Enter PrismC:  IPart= 25 JobTyp=20 DoJE=F Cont=F.
 PrismC:  IPart=     1 DynPar=F LinDyn=F Incr=           1 UseFst=F UseS4=T ISplat=1.
 PrismC was handed   239673907 working-precision words and     4 shell-pairs
 PrismC:  IPart=    15 DynPar=F LinDyn=F Incr=           1 UseFst=F UseS4=T ISplat=1.
 PrismC was handed   239673907 working-precision words and     4 shell-pairs
 PrismC:  IPart=    25 DynPar=F LinDyn=F Incr=           1 UseFst=F UseS4=T ISplat=1.
 PrismC was handed   239673907 working-precision words and     4 shell-pairs
 Enter PrismC:  IPart=  4 JobTyp=20 DoJE=F Cont=F.
 Enter PrismC:  IPart=  2 JobTyp=20 DoJE=F Cont=F.
 PrismC:  IPart=     4 DynPar=F LinDyn=F Incr=           1 UseFst=F UseS4=T ISplat=1.
 PrismC was handed   239673907 working-precision words and     4 shell-pairs
 PrismC:  IPart=     2 DynPar=F LinDyn=F Incr=           1 UseFst=F UseS4=T ISplat=1.
 PrismC was handed   239673907 working-precision words and     4 shell-pairs
 Enter PrismC:  IPart= 27 JobTyp=20 DoJE=F Cont=F.
 Enter PrismC:  IPart= 21 JobTyp=20 DoJE=F Cont=F.
 Enter PrismC:  IPart=  6 JobTyp=20 DoJE=F Cont=F.
 PrismC:  IPart=    27 DynPar=F LinDyn=F Incr=           1 UseFst=F UseS4=T ISplat=1.
 PrismC was handed   239673907 working-precision words and     4 shell-pairs
 PrismC:  IPart=    21 DynPar=F LinDyn=F Incr=           1 UseFst=F UseS4=T ISplat=1.
 PrismC was handed   239673907 working-precision words and     4 shell-pairs
 PrismC:  IPart=     6 DynPar=F LinDyn=F Incr=           1 UseFst=F UseS4=T ISplat=1.
 PrismC was handed   239673907 working-precision words and     4 shell-pairs
 Enter PrismC:  IPart=  7 JobTyp=20 DoJE=F Cont=F.
 PrismC:  IPart=     7 DynPar=F LinDyn=F Incr=           1 UseFst=F UseS4=T ISplat=1.
 PrismC was handed   239673907 working-precision words and     4 shell-pairs
 Enter PrismC:  IPart=  9 JobTyp=20 DoJE=F Cont=F.
 Enter PrismC:  IPart= 16 JobTyp=20 DoJE=F Cont=F.
 Enter PrismC:  IPart= 18 JobTyp=20 DoJE=F Cont=F.
 Enter PrismC:  IPart= 13 JobTyp=20 DoJE=F Cont=F.
 PrismC:  IPart=     9 DynPar=F LinDyn=F Incr=           1 UseFst=F UseS4=T ISplat=1.
 PrismC:  IPart=    13 DynPar=F LinDyn=F Incr=           1 UseFst=F UseS4=T ISplat=1.
 PrismC:  IPart=    16 DynPar=F LinDyn=F Incr=           1 UseFst=F UseS4=T ISplat=1.
 PrismC was handed   239673907 working-precision words and     4 shell-pairs
 PrismC:  IPart=    18 DynPar=F LinDyn=F Incr=           1 UseFst=F UseS4=T ISplat=1.
 PrismC was handed   239673907 working-precision words and     4 shell-pairs
 PrismC was handed   239673907 working-precision words and     4 shell-pairs
 PrismC was handed   239673907 working-precision words and     4 shell-pairs
 Enter PrismC:  IPart= 11 JobTyp=20 DoJE=F Cont=F.
 Enter PrismC:  IPart=  3 JobTyp=20 DoJE=F Cont=F.
 PrismC:  IPart=    11 DynPar=F LinDyn=F Incr=           1 UseFst=F UseS4=T ISplat=1.
 PrismC was handed   239673907 working-precision words and     4 shell-pairs
 Enter PrismC:  IPart= 26 JobTyp=20 DoJE=F Cont=F.
 PrismC:  IPart=     3 DynPar=F LinDyn=F Incr=           1 UseFst=F UseS4=T ISplat=1.
 PrismC was handed   239673907 working-precision words and     4 shell-pairs
 Enter PrismC:  IPart= 19 JobTyp=20 DoJE=F Cont=F.
 Enter PrismC:  IPart= 20 JobTyp=20 DoJE=F Cont=F.
 PrismC:  IPart=    26 DynPar=F LinDyn=F Incr=           1 UseFst=F UseS4=T ISplat=1.
 PrismC was handed   239673907 working-precision words and     4 shell-pairs
 PrismC:  IPart=    20 DynPar=F LinDyn=F Incr=           1 UseFst=F UseS4=T ISplat=1.
 PrismC was handed   239673907 working-precision words and     4 shell-pairs
 PrismC:  IPart=    19 DynPar=F LinDyn=F Incr=           1 UseFst=F UseS4=T ISplat=1.
 PrismC was handed   239673907 working-precision words and     4 shell-pairs
 Enter PrismC:  IPart= 22 JobTyp=20 DoJE=F Cont=F.
 Enter PrismC:  IPart=  8 JobTyp=20 DoJE=F Cont=F.
 PrismC:  IPart=    22 DynPar=F LinDyn=F Incr=           1 UseFst=F UseS4=T ISplat=1.
 PrismC:  IPart=     8 DynPar=F LinDyn=F Incr=           1 UseFst=F UseS4=T ISplat=1.
 PrismC was handed   239673907 working-precision words and     4 shell-pairs
 Enter PrismC:  IPart=  5 JobTyp=20 DoJE=F Cont=F.
 PrismC was handed   239673907 working-precision words and     4 shell-pairs
 Enter PrismC:  IPart= 24 JobTyp=20 DoJE=F Cont=F.
 PrismC:  IPart=     5 DynPar=F LinDyn=F Incr=           1 UseFst=F UseS4=T ISplat=1.
 PrismC was handed   239673907 working-precision words and     4 shell-pairs
 PrismC:  IPart=    24 DynPar=F LinDyn=F Incr=           1 UseFst=F UseS4=T ISplat=1.
 PrismC was handed   239673907 working-precision words and     4 shell-pairs
 CoulSu:  NxtVal=             29 LenVP=      239673908 MinMC=    3485.
 Finite nuclear repulsion energy        11.9539937291.
 No density basis found on file 200724.
 Leave Link  301 at Wed Apr  5 10:34:28 2023, MaxMem=  6710886400 cpu:               2.7 elap:               0.1
 (Enter /sw/contrib/gaussian/gdv/J14pnew/gdv/l302.exe)
 GetPMM: IRwPM=    824 LRwPM=      0 LPMAll=      2
 Using X2C one-electron Hamiltonian with SO, DoBoet=T ScalSO=  1.00D+00.
 NPDir=0 NMtPBC=     1 NCelOv=     1 NCel=       1 NClECP=     1 NCelD=      1
         NCelK=      1 NCelE2=     1 NClLst=     1 CellRange=     0.0.
 One-electron integrals computed using PRISM.
 Entering OneElI...
 Calculate overlap and kinetic energy integrals
    NBasis =  15  MinDer = 0  MaxDer = 0
 Requested accuracy = 0.1000D-12
 PrmmSu-InSpLW:  IPartL=    0 NPrtUS=   28 NPrtUL=    1 DoSpLW=F IThBeg=    0 IThEnd=   27 NThAct=   28.
 PrSmSu:  IncTry=   512 NBBP=             45 NTPThr=   100 NPartT=   28 Incr=           1 LDynOK=F GPUOK=F.
 PrsmSu:  NPrtUS=  28 ThrOK=T IAlg=1 LenDen=           0 ISkipM=0 DoSpLW=F IThBeg=    0 IThEnd=   27.
 Prism:   IPart=     0 DynPar=F LinDyn=F Incr=           1.
 PRISM was handed   239671288 working-precision words and    45 shell-pairs
 PRISM was handed   239671288 working-precision words and    45 shell-pairs
 PRISM was handed   239671288 working-precision words and    45 shell-pairs
 PRISM was handed   239671288 working-precision words and    45 shell-pairs
 PRISM was handed   239671288 working-precision words and    45 shell-pairs
 PRISM was handed   239671288 working-precision words and    45 shell-pairs
 PRISM was handed   239671288 working-precision words and    45 shell-pairs
 PRISM was handed   239671288 working-precision words and    45 shell-pairs
 PRISM was handed   239671288 working-precision words and    45 shell-pairs
 PRISM was handed   239671288 working-precision words and    45 shell-pairs
 PRISM was handed   239671288 working-precision words and    45 shell-pairs
 PRISM was handed   239671288 working-precision words and    45 shell-pairs
 PRISM was handed   239671288 working-precision words and    45 shell-pairs
 PRISM was handed   239671288 working-precision words and    45 shell-pairs
 PRISM was handed   239671288 working-precision words and    45 shell-pairs
 PRISM was handed   239671288 working-precision words and    45 shell-pairs
 PRISM was handed   239671288 working-precision words and    45 shell-pairs
 PRISM was handed   239671288 working-precision words and    45 shell-pairs
 PRISM was handed   239671288 working-precision words and    45 shell-pairs
 PRISM was handed   239671288 working-precision words and    45 shell-pairs
 PRISM was handed   239671288 working-precision words and    45 shell-pairs
 PRISM was handed   239671288 working-precision words and    45 shell-pairs
 PRISM was handed   239671288 working-precision words and    45 shell-pairs
 PRISM was handed   239671288 working-precision words and    45 shell-pairs
 PRISM was handed   239671288 working-precision words and    45 shell-pairs
 PRISM was handed   239671288 working-precision words and    45 shell-pairs
 PRISM was handed   239671288 working-precision words and    45 shell-pairs
 PRISM was handed   239671288 working-precision words and    45 shell-pairs
 PrSmSu:  NxtVal=             29.
 *** Overlap *** 
                1             2             3             4             5 
      1  0.100000D+01
      2  0.222216D+00  0.100000D+01
      3  0.000000D+00  0.000000D+00  0.100000D+01
      4  0.000000D+00  0.000000D+00  0.000000D+00  0.100000D+01
      5  0.000000D+00  0.000000D+00  0.000000D+00  0.000000D+00  0.100000D+01
      6  0.171869D+00  0.775507D+00  0.000000D+00  0.000000D+00  0.000000D+00
      7  0.000000D+00  0.000000D+00  0.519296D+00  0.000000D+00  0.000000D+00
      8  0.000000D+00  0.000000D+00  0.000000D+00  0.519296D+00  0.000000D+00
      9  0.000000D+00  0.000000D+00  0.000000D+00  0.000000D+00  0.519296D+00
     10  0.348174D-01  0.262002D+00  0.000000D+00 -0.303676D+00 -0.123582D+00
     11  0.796486D-01  0.424886D+00  0.000000D+00 -0.180485D+00 -0.734490D-01
     12  0.348107D-01  0.261971D+00  0.262965D+00  0.151834D+00 -0.123566D+00
     13  0.796445D-01  0.424867D+00  0.156303D+00  0.902482D-01 -0.734457D-01
     14  0.348107D-01  0.261971D+00 -0.262965D+00  0.151834D+00 -0.123566D+00
     15  0.796445D-01  0.424867D+00 -0.156303D+00  0.902482D-01 -0.734457D-01
                6             7             8             9            10 
      6  0.100000D+01
      7  0.000000D+00  0.100000D+01
      8  0.000000D+00  0.000000D+00  0.100000D+01
      9  0.000000D+00  0.000000D+00  0.000000D+00  0.100000D+01
     10  0.408244D+00  0.000000D+00 -0.513150D+00 -0.208828D+00  0.100000D+01
     11  0.705213D+00  0.000000D+00 -0.497186D+00 -0.202331D+00  0.658292D+00
     12  0.408222D+00  0.444392D+00  0.256588D+00 -0.208817D+00  0.344208D-01
     13  0.705192D+00  0.430578D+00  0.248612D+00 -0.202325D+00  0.191153D+00
     14  0.408222D+00 -0.444392D+00  0.256588D+00 -0.208817D+00  0.344208D-01
     15  0.705192D+00 -0.430578D+00  0.248612D+00 -0.202325D+00  0.191153D+00
               11            12            13            14            15 
     11  0.100000D+01
     12  0.191153D+00  0.100000D+01
     13  0.467823D+00  0.658292D+00  0.100000D+01
     14  0.191153D+00  0.344209D-01  0.191153D+00  0.100000D+01
     15  0.467823D+00  0.191153D+00  0.467824D+00  0.658292D+00  0.100000D+01
 *** Kinetic Energy *** 
                1             2             3             4             5 
      1  0.223808D+02
      2 -0.178034D+01  0.132477D+01
      3  0.000000D+00  0.000000D+00  0.313233D+01
      4  0.000000D+00  0.000000D+00  0.000000D+00  0.313233D+01
      5  0.000000D+00  0.000000D+00  0.000000D+00  0.000000D+00  0.313233D+01
      6  0.105796D+00  0.379313D+00  0.000000D+00  0.000000D+00  0.000000D+00
      7  0.000000D+00  0.000000D+00  0.441948D+00  0.000000D+00  0.000000D+00
      8  0.000000D+00  0.000000D+00  0.000000D+00  0.441948D+00  0.000000D+00
      9  0.000000D+00  0.000000D+00  0.000000D+00  0.000000D+00  0.441948D+00
     10 -0.284379D-01  0.305204D-01  0.000000D+00 -0.220839D+00 -0.898710D-01
     11  0.231552D-01  0.114023D+00  0.000000D+00 -0.979700D-01 -0.398692D-01
     12 -0.284392D-01  0.304945D-01  0.191207D+00  0.110402D+00 -0.898469D-01
     13  0.231527D-01  0.114013D+00  0.848417D-01  0.489869D-01 -0.398665D-01
     14 -0.284392D-01  0.304945D-01 -0.191207D+00  0.110402D+00 -0.898469D-01
     15  0.231527D-01  0.114013D+00 -0.848417D-01  0.489869D-01 -0.398665D-01
                6             7             8             9            10 
      6  0.318047D+00
      7  0.000000D+00  0.530079D+00
      8  0.000000D+00  0.000000D+00  0.530079D+00
      9  0.000000D+00  0.000000D+00  0.000000D+00  0.530079D+00
     10  0.119897D+00  0.000000D+00 -0.319363D+00 -0.129966D+00  0.139568D+01
     11  0.150482D+00  0.000000D+00 -0.197179D+00 -0.802425D-01  0.259735D+00
     12  0.119883D+00  0.276563D+00  0.159685D+00 -0.129955D+00 -0.385047D-01
     13  0.150473D+00  0.170760D+00  0.985956D-01 -0.802390D-01  0.131355D-01
     14  0.119883D+00 -0.276563D+00  0.159685D+00 -0.129955D+00 -0.385047D-01
     15  0.150473D+00 -0.170760D+00  0.985956D-01 -0.802390D-01  0.131355D-01
               11            12            13            14            15 
     11  0.241917D+00
     12  0.131355D-01  0.139568D+01
     13  0.558579D-01  0.259735D+00  0.241917D+00
     14  0.131355D-01 -0.385048D-01  0.131357D-01  0.139568D+01
     15  0.558579D-01  0.131357D-01  0.558581D-01  0.259735D+00  0.241917D+00
 FoFCou: FMM=F IPFlag=           0 FMFlag=      100000 FMFlg1=           0
         NFxFlg=           0 DoJE=T BraDBF=F KetDBF=T FulRan=T
         wScrn=  0.000000 ICntrl=       500 IOpCl=  0 I1Cent=           4 NGrid=           0
         NMat0=    1 NMatS0=      1 NMatT0=    0 NMatD0=    1 NMtDS0=    0 NMtDT0=    0
 Symmetry not used in FoFCou.
 FoFCou:  KetSym=T NOpSet=  1 NOpAb=1 NOp=  1.
 FoFCou:  CnvScl= 1.00D+00 Thresh= 1.00D-13 IAcrcy=      10.
 FoFCou: LinMIO=F DoNuc=F BraDBF=F KetDBF=T HaveP=T PDBF=T HaveZ=F HaveW=F
         NIJTC =       3 NIJTAt=       0 NIJTCD=       1 NIJTT =       4
         IJTBeg=       1 IJTEnd=       3 KLTBeg=       4 KLTEnd=       4
         IPTBeg=       4 IPTEnd=       4 IPTBCv=       4 IPTECv=       4
         IZTBeg=       1 IZTEnd=       3 IZTBCv=       1 IZTECv=       3
         IWTBeg=       4 IWTEnd=       4 IWTBCv=       4 IWTECv=       4
         INTBeg=       1 INTEnd=       0 IFTBCv=       1 IFTECv=       3
 CoulSu-InSpLW:  IPartL=    0 NPrtUS=   28 NPrtUL=    1 DoSpLW=F IThBeg=    0 IThEnd=   27 NThAct=   28.
 CoulSu:  IncTry=  1024 NBBP=            180 NTPThr=   100 NPartT=   28 Incr=           1 LDynOK=F GPUOK=F.
 CoulSu:  NPrtUS=  28 ThrOK=T IAlg=1 LenDen=         171 LWGrdD=           0 DoCopy=T ISkipM=0
          DoSpLW=F IThBeg=    0 IThEnd=   27.
 Enter PrismC:  IPart=  0 JobTyp=20 DoJE=T Cont=T.
 PrismC:  IPart=     0 DynPar=F LinDyn=F Incr=           1 UseFst=F UseS4=T ISplat=2.
 Enter PrismC:  IPart=  9 JobTyp=20 DoJE=T Cont=T.
 PrismC was handed   239671162 working-precision words and    45 shell-pairs
 Enter PrismC:  IPart= 23 JobTyp=20 DoJE=T Cont=T.
 Enter PrismC:  IPart= 18 JobTyp=20 DoJE=T Cont=T.
 Enter PrismC:  IPart= 20 JobTyp=20 DoJE=T Cont=T.
 PrismC:  IPart=     9 DynPar=F LinDyn=F Incr=           1 UseFst=F UseS4=T ISplat=2.
 PrismC:  IPart=    18 DynPar=F LinDyn=F Incr=           1 UseFst=F UseS4=T ISplat=2.
 PrismC was handed   239671162 working-precision words and    45 shell-pairs
 PrismC:  IPart=    20 DynPar=F LinDyn=F Incr=           1 UseFst=F UseS4=T ISplat=2.
 Enter PrismC:  IPart= 19 JobTyp=20 DoJE=T Cont=T.
 PrismC was handed   239671162 working-precision words and    45 shell-pairs
 Enter PrismC:  IPart=  1 JobTyp=20 DoJE=T Cont=T.
 Enter PrismC:  IPart= 22 JobTyp=20 DoJE=T Cont=T.
 Enter PrismC:  IPart= 26 JobTyp=20 DoJE=T Cont=T.
 Enter PrismC:  IPart=  4 JobTyp=20 DoJE=T Cont=T.
 Enter PrismC:  IPart= 10 JobTyp=20 DoJE=T Cont=T.
 Enter PrismC:  IPart=  6 JobTyp=20 DoJE=T Cont=T.
 Enter PrismC:  IPart= 21 JobTyp=20 DoJE=T Cont=T.
 Enter PrismC:  IPart=  5 JobTyp=20 DoJE=T Cont=T.
 PrismC:  IPart=    23 DynPar=F LinDyn=F Incr=           1 UseFst=F UseS4=T ISplat=2.
 PrismC:  IPart=     5 DynPar=F LinDyn=F Incr=           1 UseFst=F UseS4=T ISplat=2.
 Enter PrismC:  IPart= 15 JobTyp=20 DoJE=T Cont=T.
 PrismC:  IPart=    21 DynPar=F LinDyn=F Incr=           1 UseFst=F UseS4=T ISplat=2.
 PrismC:  IPart=    15 DynPar=F LinDyn=F Incr=           1 UseFst=F UseS4=T ISplat=2.
 PrismC:  IPart=    26 DynPar=F LinDyn=F Incr=           1 UseFst=F UseS4=T ISplat=2.
 Enter PrismC:  IPart= 11 JobTyp=20 DoJE=T Cont=T.
 Enter PrismC:  IPart=  3 JobTyp=20 DoJE=T Cont=T.
 PrismC:  IPart=    22 DynPar=F LinDyn=F Incr=           1 UseFst=F UseS4=T ISplat=2.
 PrismC:  IPart=     3 DynPar=F LinDyn=F Incr=           1 UseFst=F UseS4=T ISplat=2.
 PrismC:  IPart=     6 DynPar=F LinDyn=F Incr=           1 UseFst=F UseS4=T ISplat=2.
 PrismC:  IPart=     4 DynPar=F LinDyn=F Incr=           1 UseFst=F UseS4=T ISplat=2.
 PrismC:  IPart=     1 DynPar=F LinDyn=F Incr=           1 UseFst=F UseS4=T ISplat=2.
 PrismC:  IPart=    11 DynPar=F LinDyn=F Incr=           1 UseFst=F UseS4=T ISplat=2.
 PrismC:  IPart=    10 DynPar=F LinDyn=F Incr=           1 UseFst=F UseS4=T ISplat=2.
 PrismC:  IPart=    19 DynPar=F LinDyn=F Incr=           1 UseFst=F UseS4=T ISplat=2.
 PrismC was handed   239671162 working-precision words and    45 shell-pairs
 Enter PrismC:  IPart=  7 JobTyp=20 DoJE=T Cont=T.
 PrismC was handed   239671162 working-precision words and    45 shell-pairs
 PrismC:  IPart=     7 DynPar=F LinDyn=F Incr=           1 UseFst=F UseS4=T ISplat=2.
 Enter PrismC:  IPart= 14 JobTyp=20 DoJE=T Cont=T.
 PrismC was handed   239671162 working-precision words and    45 shell-pairs
 Enter PrismC:  IPart= 25 JobTyp=20 DoJE=T Cont=T.
 PrismC:  IPart=    14 DynPar=F LinDyn=F Incr=           1 UseFst=F UseS4=T ISplat=2.
 Enter PrismC:  IPart= 17 JobTyp=20 DoJE=T Cont=T.
 PrismC:  IPart=    25 DynPar=F LinDyn=F Incr=           1 UseFst=F UseS4=T ISplat=2.
 Enter PrismC:  IPart= 27 JobTyp=20 DoJE=T Cont=T.
 PrismC:  IPart=    17 DynPar=F LinDyn=F Incr=           1 UseFst=F UseS4=T ISplat=2.
 PrismC:  IPart=    27 DynPar=F LinDyn=F Incr=           1 UseFst=F UseS4=T ISplat=2.
 Enter PrismC:  IPart= 16 JobTyp=20 DoJE=T Cont=T.
 Enter PrismC:  IPart=  8 JobTyp=20 DoJE=T Cont=T.
 Enter PrismC:  IPart= 12 JobTyp=20 DoJE=T Cont=T.
 PrismC:  IPart=    16 DynPar=F LinDyn=F Incr=           1 UseFst=F UseS4=T ISplat=2.
 PrismC:  IPart=    12 DynPar=F LinDyn=F Incr=           1 UseFst=F UseS4=T ISplat=2.
 Enter PrismC:  IPart=  2 JobTyp=20 DoJE=T Cont=T.
 PrismC was handed   239671162 working-precision words and    45 shell-pairs
 PrismC was handed   239671162 working-precision words and    45 shell-pairs
 PrismC was handed   239671162 working-precision words and    45 shell-pairs
 PrismC:  IPart=     8 DynPar=F LinDyn=F Incr=           1 UseFst=F UseS4=T ISplat=2.
 PrismC was handed   239671162 working-precision words and    45 shell-pairs
 PrismC was handed   239671162 working-precision words and    45 shell-pairs
 PrismC was handed   239671162 working-precision words and    45 shell-pairs
 PrismC was handed   239671162 working-precision words and    45 shell-pairs
 PrismC was handed   239671162 working-precision words and    45 shell-pairs
 Enter PrismC:  IPart= 13 JobTyp=20 DoJE=T Cont=T.
 PrismC was handed   239671162 working-precision words and    45 shell-pairs
 Enter PrismC:  IPart= 24 JobTyp=20 DoJE=T Cont=T.
 PrismC was handed   239671162 working-precision words and    45 shell-pairs
 PrismC was handed   239671162 working-precision words and    45 shell-pairs
 PrismC was handed   239671162 working-precision words and    45 shell-pairs
 PrismC was handed   239671162 working-precision words and    45 shell-pairs
 PrismC:  IPart=     2 DynPar=F LinDyn=F Incr=           1 UseFst=F UseS4=T ISplat=2.
 PrismC was handed   239671162 working-precision words and    45 shell-pairs
 PrismC:  IPart=    24 DynPar=F LinDyn=F Incr=           1 UseFst=F UseS4=T ISplat=2.
 PrismC was handed   239671162 working-precision words and    45 shell-pairs
 PrismC was handed   239671162 working-precision words and    45 shell-pairs
 PrismC:  IPart=    13 DynPar=F LinDyn=F Incr=           1 UseFst=F UseS4=T ISplat=2.
 PrismC was handed   239671162 working-precision words and    45 shell-pairs
 PrismC was handed   239671162 working-precision words and    45 shell-pairs
 PrismC was handed   239671162 working-precision words and    45 shell-pairs
 PrismC was handed   239671162 working-precision words and    45 shell-pairs
 PrismC was handed   239671162 working-precision words and    45 shell-pairs
 PrismC was handed   239671162 working-precision words and    45 shell-pairs
 CoulSu:  NxtVal=             29 LenVP=      239671163 MinMC=     531.
 CoulSu-InSpLW:  IPartL=    0 NPrtUS=   28 NPrtUL=    1 DoSpLW=F IThBeg=    0 IThEnd=   27 NThAct=   28.
 CoulSu:  IncTry=  1024 NBBP=            180 NTPThr=   100 NPartT=   28 Incr=           1 LDynOK=F GPUOK=F.
 CoulSu:  NPrtUS=  28 ThrOK=T IAlg=1 LenDen=         602 LWGrdD=           0 DoCopy=T ISkipM=0
          DoSpLW=F IThBeg=    0 IThEnd=   27.
 Enter PrismC:  IPart=  0 JobTyp=20 DoJE=T Cont=F.
 Enter PrismC:  IPart= 15 JobTyp=20 DoJE=T Cont=F.
 Enter PrismC:  IPart=  4 JobTyp=20 DoJE=T Cont=F.
 Enter PrismC:  IPart= 25 JobTyp=20 DoJE=T Cont=F.
 Enter PrismC:  IPart=  1 JobTyp=20 DoJE=T Cont=F.
 PrismC:  IPart=     0 DynPar=F LinDyn=F Incr=           1 UseFst=F UseS4=T ISplat=2.
 PrismC was handed   239670244 working-precision words and    45 shell-pairs
 PrismC:  IPart=    25 DynPar=F LinDyn=F Incr=           1 UseFst=F UseS4=T ISplat=2.
 PrismC was handed   239670244 working-precision words and    45 shell-pairs
 PrismC:  IPart=     4 DynPar=F LinDyn=F Incr=           1 UseFst=F UseS4=T ISplat=2.
 Enter PrismC:  IPart= 24 JobTyp=20 DoJE=T Cont=F.
 PrismC:  IPart=    15 DynPar=F LinDyn=F Incr=           1 UseFst=F UseS4=T ISplat=2.
 Enter PrismC:  IPart= 26 JobTyp=20 DoJE=T Cont=F.
 PrismC:  IPart=    24 DynPar=F LinDyn=F Incr=           1 UseFst=F UseS4=T ISplat=2.
 Enter PrismC:  IPart= 21 JobTyp=20 DoJE=T Cont=F.
 Enter PrismC:  IPart= 16 JobTyp=20 DoJE=T Cont=F.
 PrismC was handed   239670244 working-precision words and    45 shell-pairs
 Enter PrismC:  IPart=  3 JobTyp=20 DoJE=T Cont=F.
 PrismC was handed   239670244 working-precision words and    45 shell-pairs
 Enter PrismC:  IPart=  8 JobTyp=20 DoJE=T Cont=F.
 PrismC was handed   239670244 working-precision words and    45 shell-pairs
 Enter PrismC:  IPart=  2 JobTyp=20 DoJE=T Cont=F.
 Enter PrismC:  IPart=  9 JobTyp=20 DoJE=T Cont=F.
 Enter PrismC:  IPart= 10 JobTyp=20 DoJE=T Cont=F.
 PrismC:  IPart=    26 DynPar=F LinDyn=F Incr=           1 UseFst=F UseS4=T ISplat=2.
 PrismC was handed   239670244 working-precision words and    45 shell-pairs
 PrismC:  IPart=     1 DynPar=F LinDyn=F Incr=           1 UseFst=F UseS4=T ISplat=2.
 PrismC was handed   239670244 working-precision words and    45 shell-pairs
 Enter PrismC:  IPart= 13 JobTyp=20 DoJE=T Cont=F.
 Enter PrismC:  IPart= 22 JobTyp=20 DoJE=T Cont=F.
 PrismC:  IPart=     8 DynPar=F LinDyn=F Incr=           1 UseFst=F UseS4=T ISplat=2.
 PrismC was handed   239670244 working-precision words and    45 shell-pairs
 Enter PrismC:  IPart= 19 JobTyp=20 DoJE=T Cont=F.
 PrismC:  IPart=    13 DynPar=F LinDyn=F Incr=           1 UseFst=F UseS4=T ISplat=2.
 PrismC was handed   239670244 working-precision words and    45 shell-pairs
 PrismC:  IPart=    19 DynPar=F LinDyn=F Incr=           1 UseFst=F UseS4=T ISplat=2.
 PrismC was handed   239670244 working-precision words and    45 shell-pairs
 PrismC:  IPart=    22 DynPar=F LinDyn=F Incr=           1 UseFst=F UseS4=T ISplat=2.
 PrismC was handed   239670244 working-precision words and    45 shell-pairs
 PrismC:  IPart=     9 DynPar=F LinDyn=F Incr=           1 UseFst=F UseS4=T ISplat=2.
 PrismC was handed   239670244 working-precision words and    45 shell-pairs
 PrismC:  IPart=     2 DynPar=F LinDyn=F Incr=           1 UseFst=F UseS4=T ISplat=2.
 PrismC was handed   239670244 working-precision words and    45 shell-pairs
 PrismC:  IPart=    10 DynPar=F LinDyn=F Incr=           1 UseFst=F UseS4=T ISplat=2.
 PrismC was handed   239670244 working-precision words and    45 shell-pairs
 PrismC:  IPart=     3 DynPar=F LinDyn=F Incr=           1 UseFst=F UseS4=T ISplat=2.
 PrismC was handed   239670244 working-precision words and    45 shell-pairs
 PrismC:  IPart=    21 DynPar=F LinDyn=F Incr=           1 UseFst=F UseS4=T ISplat=2.
 PrismC was handed   239670244 working-precision words and    45 shell-pairs
 PrismC:  IPart=    16 DynPar=F LinDyn=F Incr=           1 UseFst=F UseS4=T ISplat=2.
 PrismC was handed   239670244 working-precision words and    45 shell-pairs
 Enter PrismC:  IPart= 27 JobTyp=20 DoJE=T Cont=F.
 Enter PrismC:  IPart=  6 JobTyp=20 DoJE=T Cont=F.
 PrismC:  IPart=    27 DynPar=F LinDyn=F Incr=           1 UseFst=F UseS4=T ISplat=2.
 PrismC was handed   239670244 working-precision words and    45 shell-pairs
 PrismC:  IPart=     6 DynPar=F LinDyn=F Incr=           1 UseFst=F UseS4=T ISplat=2.
 PrismC was handed   239670244 working-precision words and    45 shell-pairs
 Enter PrismC:  IPart= 20 JobTyp=20 DoJE=T Cont=F.
 Enter PrismC:  IPart=  7 JobTyp=20 DoJE=T Cont=F.
 PrismC:  IPart=    20 DynPar=F LinDyn=F Incr=           1 UseFst=F UseS4=T ISplat=2.
 PrismC was handed   239670244 working-precision words and    45 shell-pairs
 PrismC:  IPart=     7 DynPar=F LinDyn=F Incr=           1 UseFst=F UseS4=T ISplat=2.
 PrismC was handed   239670244 working-precision words and    45 shell-pairs
 Enter PrismC:  IPart= 12 JobTyp=20 DoJE=T Cont=F.
 Enter PrismC:  IPart=  5 JobTyp=20 DoJE=T Cont=F.
 Enter PrismC:  IPart= 11 JobTyp=20 DoJE=T Cont=F.
 PrismC:  IPart=    12 DynPar=F LinDyn=F Incr=           1 UseFst=F UseS4=T ISplat=2.
 PrismC was handed   239670244 working-precision words and    45 shell-pairs
 Enter PrismC:  IPart= 14 JobTyp=20 DoJE=T Cont=F.
 PrismC:  IPart=     5 DynPar=F LinDyn=F Incr=           1 UseFst=F UseS4=T ISplat=2.
 PrismC was handed   239670244 working-precision words and    45 shell-pairs
 Enter PrismC:  IPart= 23 JobTyp=20 DoJE=T Cont=F.
 PrismC:  IPart=    14 DynPar=F LinDyn=F Incr=           1 UseFst=F UseS4=T ISplat=2.
 PrismC was handed   239670244 working-precision words and    45 shell-pairs
 PrismC:  IPart=    23 DynPar=F LinDyn=F Incr=           1 UseFst=F UseS4=T ISplat=2.
 Enter PrismC:  IPart= 18 JobTyp=20 DoJE=T Cont=F.
 PrismC:  IPart=    11 DynPar=F LinDyn=F Incr=           1 UseFst=F UseS4=T ISplat=2.
 Enter PrismC:  IPart= 17 JobTyp=20 DoJE=T Cont=F.
 PrismC was handed   239670244 working-precision words and    45 shell-pairs
 PrismC was handed   239670244 working-precision words and    45 shell-pairs
 PrismC:  IPart=    18 DynPar=F LinDyn=F Incr=           1 UseFst=F UseS4=T ISplat=2.
 PrismC was handed   239670244 working-precision words and    45 shell-pairs
 PrismC:  IPart=    17 DynPar=F LinDyn=F Incr=           1 UseFst=F UseS4=T ISplat=2.
 PrismC was handed   239670244 working-precision words and    45 shell-pairs
 CoulSu:  NxtVal=             29 LenVP=      239670245 MinMC=     400.
 Entering OneElI...
 Calculate potential energy integrals
    NBasis =  15  MinDer = 0  MaxDer = 0
 Requested accuracy = 0.1000D-12
 PrmmSu-InSpLW:  IPartL=    0 NPrtUS=   28 NPrtUL=    1 DoSpLW=F IThBeg=    0 IThEnd=   27 NThAct=   28.
 PrSmSu:  IncTry=   512 NBBP=            180 NTPThr=   100 NPartT=   28 Incr=           1 LDynOK=F GPUOK=F.
 PrsmSu:  NPrtUS=  28 ThrOK=T IAlg=1 LenDen=           0 ISkipM=0 DoSpLW=F IThBeg=    0 IThEnd=   27.
 Prism:   IPart=     0 DynPar=F LinDyn=F Incr=           1.
 PRISM was handed   239671392 working-precision words and    45 shell-pairs
 PRISM was handed   239671392 working-precision words and    45 shell-pairs
 PRISM was handed   239671392 working-precision words and    45 shell-pairs
 PRISM was handed   239671392 working-precision words and    45 shell-pairs
 PRISM was handed   239671392 working-precision words and    45 shell-pairs
 PRISM was handed   239671392 working-precision words and    45 shell-pairs
 PRISM was handed   239671392 working-precision words and    45 shell-pairs
 PRISM was handed   239671392 working-precision words and    45 shell-pairs
 PRISM was handed   239671392 working-precision words and    45 shell-pairs
 PRISM was handed   239671392 working-precision words and    45 shell-pairs
 PRISM was handed   239671392 working-precision words and    45 shell-pairs
 PRISM was handed   239671392 working-precision words and    45 shell-pairs
 PRISM was handed   239671392 working-precision words and    45 shell-pairs
 PRISM was handed   239671392 working-precision words and    45 shell-pairs
 PRISM was handed   239671392 working-precision words and    45 shell-pairs
 PRISM was handed   239671392 working-precision words and    45 shell-pairs
 PRISM was handed   239671392 working-precision words and    45 shell-pairs
 PRISM was handed   239671392 working-precision words and    45 shell-pairs
 PRISM was handed   239671392 working-precision words and    45 shell-pairs
 PRISM was handed   239671392 working-precision words and    45 shell-pairs
 PRISM was handed   239671392 working-precision words and    45 shell-pairs
 PRISM was handed   239671392 working-precision words and    45 shell-pairs
 PRISM was handed   239671392 working-precision words and    45 shell-pairs
 PRISM was handed   239671392 working-precision words and    45 shell-pairs
 PRISM was handed   239671392 working-precision words and    45 shell-pairs
 PRISM was handed   239671392 working-precision words and    45 shell-pairs
 PRISM was handed   239671392 working-precision words and    45 shell-pairs
 PRISM was handed   239671392 working-precision words and    45 shell-pairs
 PrSmSu:  NxtVal=             29.
 ****** Core Hamiltonian ****** 
                1             2             3             4             5 
      1 -0.260115D+02
      2 -0.546994D+01 -0.817852D+01
      3  0.000000D+00  0.000000D+00 -0.719749D+01
      4  0.000000D+00  0.351883D-05  0.000000D+00 -0.719751D+01
      5  0.254076D-01  0.175918D+00  0.000000D+00 -0.349289D-05 -0.711489D+01
      6 -0.432394D+01 -0.624182D+01  0.000000D+00  0.146581D-05  0.164200D+00
      7  0.000000D+00  0.000000D+00 -0.335884D+01  0.000000D+00  0.000000D+00
      8  0.000000D+00  0.000000D+00  0.000000D+00 -0.335886D+01 -0.187016D-05
      9  0.372260D-02  0.112118D+00  0.000000D+00 -0.187016D-05 -0.328730D+01
     10 -0.881102D+00 -0.206410D+01  0.000000D+00  0.204067D+01  0.852390D+00
     11 -0.200662D+01 -0.337905D+01  0.000000D+00  0.118013D+01  0.559033D+00
     12 -0.880932D+00 -0.206384D+01 -0.176709D+01 -0.102030D+01  0.852272D+00
     13 -0.200651D+01 -0.337890D+01 -0.102201D+01 -0.590099D+00  0.559007D+00
     14 -0.880932D+00 -0.206384D+01  0.176709D+01 -0.102030D+01  0.852272D+00
     15 -0.200651D+01 -0.337890D+01  0.102201D+01 -0.590099D+00  0.559007D+00
                6             7             8             9            10 
      6 -0.627120D+01
      7  0.000000D+00 -0.423481D+01
      8 -0.655383D-05  0.000000D+00 -0.423482D+01
      9  0.209387D+00  0.000000D+00  0.000000D+00 -0.409740D+01
     10 -0.246411D+01  0.000000D+00  0.250116D+01  0.103988D+01 -0.456279D+01
     11 -0.399388D+01  0.000000D+00  0.197858D+01  0.919338D+00 -0.328716D+01
     12 -0.246392D+01 -0.216599D+01 -0.125063D+01  0.103981D+01 -0.291604D+00
     13 -0.399374D+01 -0.171351D+01 -0.989375D+00  0.919309D+00 -0.117078D+01
     14 -0.246392D+01  0.216599D+01 -0.125063D+01  0.103981D+01 -0.291604D+00
     15 -0.399374D+01  0.171351D+01 -0.989375D+00  0.919309D+00 -0.117078D+01
               11            12            13            14            15 
     11 -0.424544D+01
     12 -0.117075D+01 -0.456263D+01
     13 -0.242923D+01 -0.328706D+01 -0.424536D+01
     14 -0.117075D+01 -0.291596D+00 -0.117074D+01 -0.456263D+01
     15 -0.242923D+01 -0.117074D+01 -0.242921D+01 -0.328706D+01 -0.424536D+01
 UnConB:  found    22 unique shells out of    22.
 Map in UnConB 
              1
     1            1
     2            2
     3            3
     4            4
     5            5
     6            6
     7            7
     8            8
     9            9
    10           10
    11           11
    12           12
    13           13
    14           14
    15           15
    16           16
    17           17
    18           18
    19           19
    20           20
    21           21
    22           22
    23           23
    24           24
    25           25
    26           26
    27           27
    28           28
    29           29
    30           30
    31           31
    32           32
    33           33
    34           34
 UnConB:  Uncontracting AO basis from     15 functions to     34 functions (excluding duplicates).
 Entering OneElI...
 Calculate overlap and kinetic energy integrals
    NBasis =  34  MinDer = 0  MaxDer = 0
 Requested accuracy = 0.1000D-12
 PrmmSu-InSpLW:  IPartL=    0 NPrtUS=   28 NPrtUL=    1 DoSpLW=F IThBeg=    0 IThEnd=   27 NThAct=   28.
 PrSmSu:  IncTry=   512 NBBP=            250 NTPThr=   100 NPartT=   28 Incr=           1 LDynOK=F GPUOK=F.
 PrsmSu:  NPrtUS=  28 ThrOK=T IAlg=1 LenDen=           0 ISkipM=0 DoSpLW=F IThBeg=    0 IThEnd=   27.
 Prism:   IPart=     0 DynPar=F LinDyn=F Incr=           1.
 PRISM was handed   239670221 working-precision words and   250 shell-pairs
 PRISM was handed   239670221 working-precision words and   250 shell-pairs
 PRISM was handed   239670221 working-precision words and   250 shell-pairs
 PRISM was handed   239670221 working-precision words and   250 shell-pairs
 PRISM was handed   239670221 working-precision words and   250 shell-pairs
 PRISM was handed   239670221 working-precision words and   250 shell-pairs
 PRISM was handed   239670221 working-precision words and   250 shell-pairs
 PRISM was handed   239670221 working-precision words and   250 shell-pairs
 PRISM was handed   239670221 working-precision words and   250 shell-pairs
 PRISM was handed   239670221 working-precision words and   250 shell-pairs
 PRISM was handed   239670221 working-precision words and   250 shell-pairs
 PRISM was handed   239670221 working-precision words and   250 shell-pairs
 PRISM was handed   239670221 working-precision words and   250 shell-pairs
 PRISM was handed   239670221 working-precision words and   250 shell-pairs
 PRISM was handed   239670221 working-precision words and   250 shell-pairs
 PRISM was handed   239670221 working-precision words and   250 shell-pairs
 PRISM was handed   239670221 working-precision words and   250 shell-pairs
 PRISM was handed   239670221 working-precision words and   250 shell-pairs
 PRISM was handed   239670221 working-precision words and   250 shell-pairs
 PRISM was handed   239670221 working-precision words and   250 shell-pairs
 PRISM was handed   239670221 working-precision words and   250 shell-pairs
 PRISM was handed   239670221 working-precision words and   250 shell-pairs
 PRISM was handed   239670221 working-precision words and   250 shell-pairs
 PRISM was handed   239670221 working-precision words and   250 shell-pairs
 PRISM was handed   239670221 working-precision words and   250 shell-pairs
 PRISM was handed   239670221 working-precision words and   250 shell-pairs
 PRISM was handed   239670221 working-precision words and   250 shell-pairs
 PRISM was handed   239670221 working-precision words and   250 shell-pairs
 PrSmSu:  NxtVal=             29.
 FoFCou: FMM=F IPFlag=           0 FMFlag=      100000 FMFlg1=           0
         NFxFlg=           0 DoJE=F BraDBF=F KetDBF=T FulRan=T
         wScrn=  0.000000 ICntrl=      9100 IOpCl=  0 I1Cent=           4 NGrid=           0
         NMat0=    1 NMatS0=      1 NMatT0=    0 NMatD0=    1 NMtDS0=    0 NMtDT0=    0
 Symmetry not used in FoFCou.
 FoFCou:  KetSym=T NOpSet=  1 NOpAb=1 NOp=  1.
 FoFCou:  CnvScl= 1.00D+00 Thresh= 1.00D-13 IAcrcy=      10.
 FoFCou: LinMIO=F DoNuc=F BraDBF=F KetDBF=T HaveP=T PDBF=T HaveZ=F HaveW=F
         NIJTC =       3 NIJTAt=       0 NIJTCD=       1 NIJTT =       4
         IJTBeg=       1 IJTEnd=       3 KLTBeg=       4 KLTEnd=       4
         IPTBeg=       4 IPTEnd=       4 IPTBCv=       4 IPTECv=       4
         IZTBeg=       1 IZTEnd=       3 IZTBCv=       1 IZTECv=       3
         IWTBeg=       4 IWTEnd=       4 IWTBCv=       4 IWTECv=       4
         INTBeg=       1 INTEnd=       0 IFTBCv=       1 IFTECv=       3
 NCel replicated for PrismC:     1
 CoulSu-InSpLW:  IPartL=    0 NPrtUS=    1 NPrtUL=    1 DoSpLW=F IThBeg=    0 IThEnd=    0 NThAct=    1.
 CoulSu:  IncTry=  1024 NBBP=            976 NTPThr=   100 NPartT=    1 Incr=           9 LDynOK=F GPUOK=F.
 CoulSu:  NPrtUS=   1 ThrOK=F IAlg=2 LenDen=           0 LWGrdD=           0 DoCopy=F ISkipM=0
          DoSpLW=F IThBeg=    0 IThEnd=    0.
 Enter PrismC:  IPart=  0 JobTyp=22 DoJE=F Cont=F.
 PrismC:  IPart=     0 DynPar=F LinDyn=F Incr=           9 UseFst=F UseS4=T ISplat=1.
 PrismC was handed  6710871204 working-precision words and   244 shell-pairs
 CoulSu:  NxtVal=             10 LenVP=     6710871205 MinMC= 3755264.
 SVDSVc IOpt=   1 NormSV=T IR=1
 SVDSVc V= 5.15D+00 3.71D+00 3.05D+00 3.05D+00 2.19D+00 1.94D+00 1.71D+00 1.71D+00 1.45D+00 1.19D+00
 SVDSVc V= 1.19D+00 1.17D+00 1.02D+00 6.56D-01 6.56D-01 6.20D-01 5.14D-01 4.68D-01 4.65D-01 4.65D-01
 SVDSVc V= 2.95D-01 2.18D-01 2.18D-01 1.73D-01 1.49D-01 1.31D-01 1.31D-01 1.01D-01 6.27D-02 6.27D-02
 SVDSVc V= 5.29D-02 2.95D-02 3.32D-03 3.81D-05
 RelInt: Using uncontracted basis, NUnBas=    34 NBsUse=    34 0.100E-05 EigKep=  3.81D-05 EigRej= -1.00D+00
 T eigenvalues
  8608.86518030  1550.07342483   423.85318492   156.68622168    71.33327395
    38.40142430    38.40142030    38.39518788    36.97877684    36.97875484
    36.89032076    33.76058188    14.85984560     9.06894983     9.06891323
     8.89767412     6.64333449     6.56866180     6.56865760     5.63680467
     2.58396977     2.58394300     2.39143847     1.86753558     1.60570048
     1.41853405     1.41852456     0.69249560     0.69248483     0.63229841
     0.46389312     0.31425022     0.31424856     0.15110201
 *** Veff (p space) *** 
                1             2             3             4             5 
      1  0.665060D+03
      2 -0.153146D+03  0.242339D+03
      3  0.401506D+02 -0.723007D+02  0.109593D+03
      4 -0.186360D+02  0.239320D+02 -0.377819D+02  0.567927D+02
      5  0.869976D+01 -0.133339D+02  0.158953D+02 -0.221397D+02  0.352053D+02
      6 -0.522069D-04  0.705610D-04 -0.930347D-04  0.106629D-03 -0.146383D-03
      7  0.000000D+00  0.000000D+00  0.000000D+00  0.000000D+00  0.000000D+00
      8 -0.275189D+00  0.358361D+00 -0.489560D+00  0.548597D+00 -0.762954D+00
      9 -0.370068D-04  0.497241D-04 -0.648392D-04  0.776436D-04 -0.978487D-04
     10  0.000000D+00  0.000000D+00  0.000000D+00  0.000000D+00  0.000000D+00
     11 -0.124713D+00  0.170438D+00 -0.215275D+00  0.274456D+00 -0.319629D+00
     12 -0.544011D+01  0.712945D+01 -0.961837D+01  0.107697D+02 -0.147102D+02
     13  0.292903D+01 -0.437574D+01  0.510090D+01 -0.619070D+01  0.686709D+01
     14  0.139023D-04 -0.191711D-04  0.240669D-04 -0.272850D-04  0.319233D-04
     15  0.000000D+00  0.000000D+00  0.000000D+00  0.000000D+00  0.000000D+00
     16  0.109386D+00 -0.156371D+00  0.187693D+00 -0.223510D+00  0.249351D+00
     17 -0.600874D+00  0.800638D+00 -0.105012D+01  0.112160D+01 -0.137981D+01
     18  0.000000D+00  0.000000D+00  0.000000D+00  0.000000D+00  0.000000D+00
     19  0.709220D-04 -0.977506D-04  0.124107D-03 -0.135325D-03  0.165714D-03
     20 -0.154810D+01  0.203618D+01 -0.269825D+01  0.286547D+01 -0.350439D+01
     21  0.127937D-04 -0.183439D-04  0.219245D-04 -0.257572D-04  0.277234D-04
     22  0.000000D+00  0.000000D+00  0.000000D+00  0.000000D+00  0.000000D+00
     23  0.172418D+00 -0.247724D+00  0.296155D+00 -0.346053D+00  0.375712D+00
     24 -0.677815D+00  0.100882D+01 -0.114703D+01  0.142680D+01 -0.142571D+01
     25  0.176841D+00 -0.272036D+00  0.296725D+00 -0.386084D+00  0.364954D+00
     26 -0.178999D-04  0.265167D-04 -0.299096D-04  0.382274D-04 -0.360201D-04
     27  0.000000D+00  0.000000D+00  0.000000D+00  0.000000D+00  0.000000D+00
     28  0.000000D+00  0.000000D+00  0.000000D+00  0.000000D+00  0.000000D+00
     29  0.000000D+00  0.000000D+00  0.000000D+00  0.000000D+00  0.000000D+00
     30 -0.276244D+00  0.368767D+00 -0.485531D+00  0.501846D+00 -0.630002D+00
     31 -0.146136D+00  0.189434D+00 -0.260007D+00  0.253707D+00 -0.341641D+00
     32  0.000000D+00  0.000000D+00  0.000000D+00  0.000000D+00  0.000000D+00
     33 -0.455185D-05  0.628437D-05 -0.793166D-05  0.861848D-05 -0.100703D-04
     34 -0.140763D+00  0.200307D+00 -0.241421D+00  0.279124D+00 -0.304012D+00
                6             7             8             9            10 
      6  0.112894D+02
      7  0.000000D+00  0.112892D+02
      8 -0.398711D-04  0.000000D+00  0.111167D+02
      9 -0.237262D+01  0.000000D+00 -0.215697D-04  0.263414D+02
     10  0.000000D+00  0.237263D+01  0.000000D+00  0.000000D+00  0.263414D+02
     11  0.261701D-03  0.000000D+00  0.160619D+01  0.414227D-04  0.000000D+00
     12  0.141277D-03  0.000000D+00  0.614955D+00  0.129986D-04  0.000000D+00
     13 -0.867186D-04  0.000000D+00 -0.561464D+00 -0.812593D-04  0.000000D+00
     14 -0.855084D+00  0.000000D+00 -0.696274D-05  0.427339D+01  0.000000D+00
     15  0.000000D+00  0.855059D+00  0.000000D+00  0.000000D+00  0.427340D+01
     16  0.432859D-04  0.000000D+00  0.562215D+00  0.161618D-03  0.000000D+00
     17  0.270522D-03  0.000000D+00 -0.145224D+01  0.165163D-03  0.000000D+00
     18  0.000000D+00  0.154697D+01  0.000000D+00  0.000000D+00 -0.690347D+00
     19  0.154697D+01  0.000000D+00  0.241555D-03  0.690388D+00  0.000000D+00
     20  0.170397D-05  0.000000D+00  0.667997D+00  0.241648D-04  0.000000D+00
     21 -0.341836D-01  0.000000D+00  0.322285D-05  0.422055D+00  0.000000D+00
     22  0.000000D+00  0.341640D-01  0.000000D+00  0.000000D+00  0.422053D+00
     23 -0.850323D-05  0.000000D+00 -0.989109D-02  0.140547D-04  0.000000D+00
     24  0.145604D-04  0.000000D+00  0.244697D+00  0.255201D-04  0.000000D+00
     25 -0.121204D-05  0.000000D+00  0.210396D+00  0.000000D+00  0.000000D+00
     26  0.324517D+00  0.000000D+00  0.806887D-05 -0.563226D-01  0.000000D+00
     27  0.000000D+00  0.324524D+00  0.000000D+00  0.000000D+00  0.563196D-01
     28 -0.791896D-01  0.000000D+00  0.000000D+00  0.180821D+00  0.000000D+00
     29  0.000000D+00  0.791754D-01  0.000000D+00  0.000000D+00  0.180821D+00
     30  0.764068D-05  0.000000D+00 -0.983782D-01 -0.276317D-05  0.000000D+00
     31  0.293909D-05  0.000000D+00  0.478988D-01  0.140804D-04  0.000000D+00
     32  0.000000D+00  0.168408D+00  0.000000D+00  0.000000D+00  0.160053D-01
     33  0.168407D+00  0.000000D+00 -0.100263D-05 -0.160041D-01  0.000000D+00
     34  0.000000D+00  0.000000D+00 -0.136566D+00  0.230891D-05  0.000000D+00
               11            12            13            14            15 
     11  0.265368D+02
     12 -0.111826D+00  0.252810D+02
     13 -0.281753D+00 -0.103572D+02  0.186153D+02
     14 -0.155088D-03 -0.593989D-04  0.428248D-04  0.127584D+02
     15  0.000000D+00  0.000000D+00  0.000000D+00  0.000000D+00  0.127584D+02
     16  0.429570D+01 -0.473331D+00  0.294396D+00 -0.283079D-05  0.000000D+00
     17  0.552923D+00  0.168957D+01 -0.260810D+01  0.182972D-03  0.000000D+00
     18  0.000000D+00  0.000000D+00  0.000000D+00  0.000000D+00 -0.819523D+00
     19 -0.139495D-03 -0.226512D-03  0.301969D-03  0.819620D+00  0.000000D+00
     20  0.783306D-01  0.406122D+01 -0.662214D+01 -0.506475D-04  0.000000D+00
     21 -0.235024D-04 -0.397251D-04  0.433642D-04  0.222231D+01  0.000000D+00
     22  0.000000D+00  0.000000D+00  0.000000D+00  0.000000D+00  0.222233D+01
     23  0.372464D+00 -0.507301D+00  0.612552D+00  0.255258D-04  0.000000D+00
     24  0.123015D+00  0.205041D+01 -0.234160D+01  0.314187D-04  0.000000D+00
     25 -0.147708D-01 -0.578454D+00  0.557589D+00  0.392829D-04  0.000000D+00
     26  0.429177D-05  0.525758D-04 -0.576415D-04 -0.548755D+00  0.000000D+00
     27  0.000000D+00  0.000000D+00  0.000000D+00  0.000000D+00  0.548720D+00
     28 -0.141477D-04  0.000000D+00  0.185423D-05  0.124190D+00  0.000000D+00
     29  0.000000D+00  0.000000D+00  0.000000D+00  0.000000D+00  0.124189D+00
     30 -0.939070D-01  0.692468D+00 -0.103357D+01 -0.949047D-05  0.000000D+00
     31  0.138066D+00  0.333770D+00 -0.571129D+00  0.129285D-05  0.000000D+00
     32  0.000000D+00  0.000000D+00  0.000000D+00  0.000000D+00  0.128128D+00
     33  0.141576D-05  0.103056D-04 -0.171494D-04 -0.128131D+00  0.000000D+00
     34  0.311181D-01  0.398485D+00 -0.482278D+00 -0.376957D-05  0.000000D+00
               16            17            18            19            20 
     16  0.127980D+02
     17  0.488985D+00  0.742156D+01
     18  0.000000D+00  0.000000D+00  0.662051D+01
     19 -0.949398D-04 -0.214234D-04  0.000000D+00  0.662064D+01
     20 -0.393399D+00  0.233745D+01  0.000000D+00 -0.321694D-03  0.125432D+02
     21 -0.318786D-04  0.121408D-03  0.000000D+00  0.710214D+00 -0.774300D-04
     22  0.000000D+00  0.000000D+00 -0.710175D+00  0.000000D+00  0.000000D+00
     23  0.223412D+01  0.227819D+00  0.000000D+00 -0.651942D-04 -0.949830D+00
     24  0.300286D+00  0.999624D+00  0.000000D+00 -0.106918D-03  0.423245D+01
     25  0.357678D+00 -0.112936D+01  0.000000D+00  0.165988D-03 -0.785042D+00
     26  0.109883D-04  0.174041D-03  0.000000D+00  0.802531D+00  0.826957D-04
     27  0.000000D+00  0.000000D+00  0.802522D+00  0.000000D+00  0.000000D+00
     28 -0.775869D-05  0.000000D+00  0.000000D+00 -0.692822D-01  0.241886D-05
     29  0.000000D+00  0.000000D+00  0.692846D-01  0.000000D+00  0.000000D+00
     30 -0.138351D+00  0.622895D+00  0.000000D+00 -0.916589D-04  0.108335D+01
     31  0.854938D-01  0.229336D+00  0.000000D+00 -0.279545D-04  0.568067D+00
     32  0.000000D+00  0.000000D+00  0.545979D-01  0.000000D+00  0.000000D+00
     33  0.449911D-05  0.147424D-04  0.000000D+00  0.545939D-01  0.180144D-04
     34 -0.731329D-01  0.355923D+00  0.000000D+00 -0.511620D-04  0.625450D+00
               21            22            23            24            25 
     21  0.719130D+01
     22  0.000000D+00  0.719130D+01
     23  0.490914D-05  0.000000D+00  0.734143D+01
     24 -0.378423D-05  0.000000D+00 -0.299237D+00  0.842315D+01
     25  0.425591D-04  0.000000D+00  0.507791D+00 -0.849618D+00  0.497298D+01
     26 -0.791484D+00  0.000000D+00 -0.238613D-05  0.771968D-04 -0.766775D-04
     27  0.000000D+00  0.791447D+00  0.000000D+00  0.000000D+00  0.000000D+00
     28  0.116387D+01  0.000000D+00 -0.354428D-04  0.940331D-05  0.000000D+00
     29  0.000000D+00  0.116387D+01  0.000000D+00  0.000000D+00  0.000000D+00
     30 -0.443639D-04  0.000000D+00 -0.123352D+01  0.196046D+01 -0.806491D+00
     31  0.979248D-05  0.000000D+00  0.581240D+00  0.154739D+01 -0.202447D+00
     32  0.000000D+00  0.221735D+00  0.000000D+00  0.000000D+00  0.000000D+00
     33 -0.221726D+00  0.000000D+00  0.554827D-05  0.148192D-04 -0.217597D-04
     34 -0.131264D-04  0.000000D+00 -0.159723D+00  0.813152D+00 -0.590297D+00
               26            27            28            29            30 
     26  0.516494D+01
     27  0.000000D+00  0.516488D+01
     28 -0.261010D+00  0.000000D+00  0.405425D+01
     29  0.000000D+00  0.260982D+00  0.000000D+00  0.405424D+01
     30  0.583931D-04  0.000000D+00  0.891769D-05  0.000000D+00  0.527091D+01
     31  0.310267D-04  0.000000D+00  0.683136D-05  0.000000D+00  0.400803D+00
     32  0.000000D+00  0.799463D+00  0.000000D+00  0.668580D+00  0.000000D+00
     33  0.799465D+00  0.000000D+00 -0.668589D+00  0.000000D+00  0.267786D-04
     34  0.266737D-04  0.000000D+00  0.128764D-04  0.000000D+00  0.156897D+01
               31            32            33            34 
     31  0.435465D+01
     32  0.000000D+00  0.325454D+01
     33  0.174886D-04  0.000000D+00  0.325454D+01
     34  0.706125D+00  0.000000D+00  0.253732D-04  0.407534D+01
 *** Trel (r space) *** 
                1             2             3             4             5 
      1  0.530654D+04
      2  0.837973D+03  0.908497D+03
      3  0.881240D+02  0.235473D+03  0.212427D+03
      4  0.101351D+02  0.370824D+02  0.706730D+02  0.601921D+02
      5  0.140687D+01  0.557943D+01  0.143631D+02  0.230760D+02  0.192139D+02
      6  0.217517D+00  0.884970D+00  0.253330D+01  0.545669D+01  0.798343D+01
      7  0.118553D+01  0.472535D+01  0.123415D+02  0.205884D+02  0.182437D+02
      8  0.000000D+00  0.000000D+00  0.000000D+00  0.000000D+00  0.000000D+00
      9  0.000000D+00  0.000000D+00  0.000000D+00  0.000000D+00  0.000000D+00
     10  0.248291D-03 -0.971200D-04  0.311214D-04 -0.794954D-05  0.000000D+00
     11  0.932995D-01  0.384837D+00  0.112519D+01  0.259178D+01  0.445068D+01
     12  0.000000D+00  0.000000D+00  0.000000D+00  0.000000D+00  0.000000D+00
     13  0.000000D+00  0.000000D+00  0.000000D+00  0.000000D+00  0.000000D+00
     14 -0.987852D-04  0.386488D-04 -0.123857D-04  0.316432D-05  0.000000D+00
     15  0.106109D-01  0.428318D-01  0.128864D+00  0.322159D+00  0.688245D+00
     16  0.000000D+00  0.000000D+00  0.000000D+00  0.000000D+00  0.000000D+00
     17  0.000000D+00  0.000000D+00  0.000000D+00  0.000000D+00  0.000000D+00
     18  0.491565D-04 -0.192321D-04  0.616264D-05 -0.157390D-05  0.000000D+00
     19  0.104322D-02  0.449558D-02  0.135459D-01  0.347309D-01  0.796385D-01
     20  0.000000D+00  0.000000D+00  0.000000D+00  0.000000D+00  0.000000D+00
     21  0.000000D+00  0.000000D+00  0.000000D+00  0.000000D+00  0.000000D+00
     22 -0.271586D-04  0.106250D-04 -0.340371D-05  0.000000D+00  0.000000D+00
     23 -0.360044D-03  0.140506D-03 -0.445598D-04  0.109508D-04  0.000000D+00
     24  0.409934D-05 -0.908520D-04 -0.271006D-03 -0.957156D-03 -0.455535D-02
     25 -0.408027D-03 -0.166661D-02 -0.500941D-02 -0.125247D-01 -0.265912D-01
     26  0.229306D-03  0.931850D-03  0.282853D-02  0.729008D-02  0.170044D-01
     27 -0.360165D-03  0.140553D-03 -0.445753D-04  0.109550D-04  0.000000D+00
     28  0.414811D-05 -0.907977D-04 -0.270781D-03 -0.956427D-03 -0.455237D-02
     29 -0.408046D-03 -0.166668D-02 -0.500962D-02 -0.125253D-01 -0.265932D-01
     30  0.229282D-03  0.931746D-03  0.282822D-02  0.728927D-02  0.170025D-01
     31 -0.360165D-03  0.140553D-03 -0.445753D-04  0.109550D-04  0.000000D+00
     32  0.414811D-05 -0.907977D-04 -0.270781D-03 -0.956427D-03 -0.455237D-02
     33 -0.408046D-03 -0.166668D-02 -0.500962D-02 -0.125253D-01 -0.265932D-01
     34  0.229282D-03  0.931746D-03  0.282822D-02  0.728927D-02  0.170025D-01
                6             7             8             9            10 
      6  0.658373D+01
      7  0.805301D+01  0.174261D+02
      8  0.000000D+00  0.000000D+00  0.290391D+02
      9  0.000000D+00  0.000000D+00  0.000000D+00  0.290391D+02
     10  0.000000D+00  0.000000D+00  0.000000D+00  0.000000D+00  0.290392D+02
     11  0.482215D+01  0.458087D+01  0.000000D+00  0.000000D+00  0.000000D+00
     12  0.000000D+00  0.000000D+00  0.598162D+01  0.000000D+00  0.000000D+00
     13  0.000000D+00  0.000000D+00  0.000000D+00  0.598162D+01  0.000000D+00
     14  0.000000D+00  0.000000D+00  0.000000D+00  0.000000D+00  0.598161D+01
     15  0.118681D+01  0.729905D+00  0.000000D+00  0.000000D+00  0.176312D-05
     16  0.000000D+00  0.000000D+00  0.588025D+00  0.000000D+00  0.000000D+00
     17  0.000000D+00  0.000000D+00  0.000000D+00  0.588025D+00  0.000000D+00
     18  0.000000D+00  0.000000D+00  0.000000D+00  0.000000D+00  0.588033D+00
     19  0.164728D+00  0.853395D-01  0.000000D+00  0.000000D+00 -0.146343D-05
     20  0.000000D+00  0.000000D+00  0.377190D-01  0.000000D+00  0.000000D+00
     21  0.000000D+00  0.000000D+00  0.000000D+00  0.377190D-01  0.000000D+00
     22  0.000000D+00  0.000000D+00  0.000000D+00  0.000000D+00  0.377151D-01
     23 -0.127105D-03  0.000000D+00  0.000000D+00  0.615972D-04  0.302908D-04
     24 -0.294250D-01 -0.534174D-02  0.000000D+00  0.107626D-01  0.437851D-02
     25 -0.428538D-01 -0.281520D-01  0.000000D+00 -0.688769D-02 -0.280232D-02
     26  0.368374D-01  0.182679D-01  0.000000D+00 -0.631084D-02 -0.256886D-02
     27 -0.126970D-03  0.000000D+00 -0.533487D-04 -0.308043D-04  0.302921D-04
     28 -0.294118D-01 -0.533833D-02 -0.931523D-02 -0.537854D-02  0.437579D-02
     29 -0.428604D-01 -0.281542D-01  0.595966D-02  0.344106D-02 -0.279976D-02
     30  0.368335D-01  0.182659D-01  0.546510D-02  0.315550D-02 -0.256865D-02
     31 -0.126970D-03  0.000000D+00  0.533487D-04 -0.308043D-04  0.302921D-04
     32 -0.294118D-01 -0.533833D-02  0.931523D-02 -0.537854D-02  0.437579D-02
     33 -0.428604D-01 -0.281542D-01 -0.595966D-02  0.344106D-02 -0.279976D-02
     34  0.368335D-01  0.182659D-01 -0.546510D-02  0.315550D-02 -0.256865D-02
               11            12            13            14            15 
     11  0.407368D+01
     12  0.000000D+00  0.678909D+01
     13  0.000000D+00  0.000000D+00  0.678909D+01
     14  0.000000D+00  0.000000D+00  0.000000D+00  0.678910D+01
     15  0.136470D+01  0.000000D+00  0.000000D+00  0.000000D+00  0.115827D+01
     16  0.000000D+00  0.188849D+01  0.000000D+00  0.000000D+00  0.000000D+00
     17  0.000000D+00  0.000000D+00  0.188849D+01  0.000000D+00  0.000000D+00
     18  0.000000D+00  0.000000D+00  0.000000D+00  0.188849D+01  0.000000D+00
     19  0.220175D+00  0.000000D+00  0.000000D+00  0.000000D+00  0.372082D+00
     20  0.000000D+00  0.190204D+00  0.000000D+00  0.000000D+00  0.000000D+00
     21  0.000000D+00  0.000000D+00  0.190204D+00  0.000000D+00  0.000000D+00
     22  0.000000D+00  0.000000D+00  0.000000D+00  0.190205D+00  0.000000D+00
     23 -0.313579D-02  0.000000D+00  0.137584D-01  0.559695D-02 -0.290610D-01
     24 -0.621687D-01  0.000000D+00  0.133241D+00  0.542235D-01 -0.705610D-01
     25 -0.429067D-01  0.000000D+00 -0.729093D-01 -0.296709D-01  0.423086D-01
     26  0.513050D-01  0.000000D+00 -0.346093D-01 -0.140841D-01  0.108913D+00
     27 -0.313368D-02 -0.119078D-01 -0.687544D-02  0.559327D-02 -0.290598D-01
     28 -0.621483D-01 -0.115362D+00 -0.666092D-01  0.542084D-01 -0.705665D-01
     29 -0.429178D-01  0.631148D-01  0.364420D-01 -0.296575D-01  0.422814D-01
     30  0.512997D-01  0.299713D-01  0.173052D-01 -0.140831D-01  0.108904D+00
     31 -0.313368D-02  0.119078D-01 -0.687544D-02  0.559327D-02 -0.290598D-01
     32 -0.621483D-01  0.115362D+00 -0.666092D-01  0.542084D-01 -0.705665D-01
     33 -0.429178D-01 -0.631148D-01  0.364420D-01 -0.296575D-01  0.422814D-01
     34  0.512997D-01 -0.299713D-01  0.173052D-01 -0.140831D-01  0.108904D+00
               16            17            18            19            20 
     16  0.193041D+01
     17  0.000000D+00  0.193041D+01
     18  0.000000D+00  0.000000D+00  0.193042D+01
     19  0.000000D+00  0.000000D+00  0.000000D+00  0.318043D+00
     20  0.509891D+00  0.000000D+00  0.000000D+00  0.000000D+00  0.530069D+00
     21  0.000000D+00  0.509891D+00  0.000000D+00  0.000000D+00  0.000000D+00
     22  0.000000D+00  0.000000D+00  0.509890D+00  0.000000D+00  0.000000D+00
     23  0.000000D+00  0.153369D-01  0.624251D-02  0.137642D-01  0.000000D+00
     24  0.000000D+00 -0.672529D-01 -0.273691D-01  0.542569D-01  0.000000D+00
     25  0.000000D+00 -0.332351D+00 -0.135251D+00  0.131119D+00  0.000000D+00
     26  0.000000D+00 -0.116523D+00 -0.474195D-01  0.150481D+00  0.000000D+00
     27 -0.132945D-01 -0.767612D-02  0.624810D-02  0.137620D-01  0.454827D-01
     28  0.581915D-01  0.335993D-01 -0.273441D-01  0.542489D-01  0.162977D+00
     29  0.287773D+00  0.166158D+00 -0.135223D+00  0.131105D+00  0.290969D+00
     30  0.100909D+00  0.582638D-01 -0.474164D-01  0.150472D+00  0.170758D+00
     31  0.132945D-01 -0.767612D-02  0.624810D-02  0.137620D-01 -0.454827D-01
     32 -0.581915D-01  0.335993D-01 -0.273441D-01  0.542489D-01 -0.162977D+00
     33 -0.287773D+00  0.166158D+00 -0.135223D+00  0.131105D+00 -0.290969D+00
     34 -0.100909D+00  0.582638D-01 -0.474164D-01  0.150472D+00 -0.170758D+00
               21            22            23            24            25 
     21  0.530069D+00
     22  0.000000D+00  0.530069D+00
     23 -0.525228D-01 -0.213751D-01  0.280697D+02
     24 -0.188202D+00 -0.765892D-01  0.408226D+01  0.423737D+01
     25 -0.335998D+00 -0.136735D+00  0.396945D+00  0.107043D+01  0.960144D+00
     26 -0.197176D+00 -0.802413D-01  0.378536D-01  0.139103D+00  0.277492D+00
     27  0.262614D-01 -0.213728D-01  0.000000D+00  0.000000D+00 -0.336360D-02
     28  0.941015D-01 -0.765814D-01  0.000000D+00 -0.550037D-04 -0.178610D-01
     29  0.168003D+00 -0.136724D+00 -0.336360D-02 -0.178610D-01 -0.475602D-01
     30  0.985942D-01 -0.802378D-01 -0.357019D-04  0.138195D-02  0.157450D-01
     31  0.262614D-01 -0.213728D-01  0.000000D+00  0.000000D+00 -0.336360D-02
     32  0.941015D-01 -0.765814D-01  0.000000D+00 -0.550037D-04 -0.178610D-01
     33  0.168003D+00 -0.136724D+00 -0.336360D-02 -0.178610D-01 -0.475602D-01
     34  0.985942D-01 -0.802378D-01 -0.357019D-04  0.138195D-02  0.157450D-01
               26            27            28            29            30 
     26  0.241914D+00
     27 -0.357020D-04  0.280697D+02
     28  0.138195D-02  0.408226D+01  0.423737D+01
     29  0.157450D-01  0.396945D+00  0.107043D+01  0.960144D+00
     30  0.558578D-01  0.378536D-01  0.139103D+00  0.277492D+00  0.241914D+00
     31 -0.357020D-04  0.000000D+00  0.000000D+00 -0.336363D-02 -0.356882D-04
     32  0.138195D-02  0.000000D+00 -0.550048D-04 -0.178611D-01  0.138201D-02
     33  0.157450D-01 -0.336363D-02 -0.178611D-01 -0.475602D-01  0.157452D-01
     34  0.558578D-01 -0.356882D-04  0.138201D-02  0.157452D-01  0.558579D-01
               31            32            33            34 
     31  0.280697D+02
     32  0.408226D+01  0.423737D+01
     33  0.396945D+00  0.107043D+01  0.960144D+00
     34  0.378536D-01  0.139103D+00  0.277492D+00  0.241914D+00
 *** Veff (r space) *** 
                1             2             3             4             5 
      1  0.689371D+03
      2  0.290620D+03  0.277418D+03
      3  0.107204D+03  0.149914D+03  0.134614D+03
      4  0.424466D+02  0.669785D+02  0.815361D+02  0.723473D+02
      5  0.181255D+02  0.296356D+02  0.407317D+02  0.467871D+02  0.415504D+02
      6  0.813117D+01  0.134460D+02  0.192886D+02  0.249643D+02  0.279453D+02
      7  0.168491D+02  0.275928D+02  0.381478D+02  0.444949D+02  0.405364D+02
      8  0.000000D+00  0.000000D+00  0.000000D+00  0.000000D+00  0.000000D+00
      9  0.000000D+00  0.000000D+00  0.000000D+00  0.000000D+00 -0.100368D-05
     10  0.420223D-04 -0.246736D-03 -0.260621D-02 -0.154770D-01 -0.430130D-01
     11  0.567449D+01  0.940503D+01  0.136118D+02  0.181041D+02  0.216472D+02
     12  0.000000D+00  0.000000D+00  0.000000D+00  0.000000D+00  0.000000D+00
     13  0.000000D+00  0.000000D+00  0.000000D+00  0.000000D+00  0.000000D+00
     14 -0.244535D-04 -0.296886D-04 -0.495041D-03 -0.402536D-02 -0.216982D-01
     15  0.221046D+01  0.367313D+01  0.537200D+01  0.738802D+01  0.966564D+01
     16  0.000000D+00  0.000000D+00  0.000000D+00  0.000000D+00  0.000000D+00
     17  0.000000D+00  0.000000D+00  0.000000D+00  0.000000D+00  0.000000D+00
     18  0.311339D-04 -0.198772D-04 -0.101810D-03 -0.939456D-03 -0.629168D-02
     19  0.838474D+00  0.139455D+01  0.204570D+01  0.284178D+01  0.382806D+01
     20  0.000000D+00  0.000000D+00  0.000000D+00  0.000000D+00  0.000000D+00
     21  0.000000D+00  0.000000D+00  0.000000D+00  0.000000D+00  0.000000D+00
     22 -0.249728D-04  0.782831D-05 -0.242613D-04 -0.192252D-03 -0.138931D-02
     23 -0.335769D-04  0.122838D-04 -0.447348D-05  0.129099D-05  0.000000D+00
     24  0.154072D-03  0.336151D-03  0.514343D-03  0.970648D-03  0.293261D-02
     25  0.184468D+00  0.307087D+00  0.451864D+00  0.634173D+00  0.880007D+00
     26  0.378485D+00  0.629561D+00  0.924107D+00  0.128639D+01  0.174368D+01
     27 -0.335830D-04  0.122860D-04 -0.447438D-05  0.129131D-05  0.000000D+00
     28  0.153890D-03  0.335853D-03  0.513866D-03  0.969789D-03  0.293028D-02
     29  0.184430D+00  0.307022D+00  0.451769D+00  0.634040D+00  0.879828D+00
     30  0.378465D+00  0.629527D+00  0.924058D+00  0.128632D+01  0.174359D+01
     31 -0.335830D-04  0.122860D-04 -0.447438D-05  0.129131D-05  0.000000D+00
     32  0.153890D-03  0.335853D-03  0.513866D-03  0.969789D-03  0.293028D-02
     33  0.184430D+00  0.307022D+00  0.451769D+00  0.634040D+00  0.879828D+00
     34  0.378465D+00  0.629527D+00  0.924058D+00  0.128632D+01  0.174359D+01
                6             7             8             9            10 
      6  0.249711D+02
      7  0.279527D+02  0.396445D+02
      8  0.000000D+00  0.000000D+00  0.269654D+02
      9 -0.129313D-05 -0.105710D-05  0.000000D+00  0.269654D+02
     10 -0.554173D-01 -0.453021D-01  0.000000D+00  0.000000D+00  0.269575D+02
     11  0.216744D+02  0.218345D+02  0.000000D+00 -0.118887D-05 -0.509483D-01
     12  0.000000D+00  0.000000D+00  0.116952D+02  0.000000D+00  0.000000D+00
     13 -0.160175D-05  0.000000D+00  0.000000D+00  0.116952D+02  0.000000D+00
     14 -0.686428D-01 -0.246260D-01  0.000000D+00  0.000000D+00  0.116882D+02
     15  0.117561D+02  0.987113D+01  0.000000D+00  0.000000D+00 -0.285490D-01
     16  0.000000D+00  0.000000D+00  0.326697D+01  0.000000D+00  0.000000D+00
     17  0.000000D+00  0.000000D+00  0.000000D+00  0.326697D+01  0.000000D+00
     18 -0.316801D-01 -0.735775D-02  0.000000D+00  0.000000D+00  0.326456D+01
     19  0.502575D+01  0.392632D+01  0.000000D+00  0.000000D+00 -0.121562D-01
     20  0.000000D+00  0.000000D+00  0.713536D+00  0.000000D+00  0.000000D+00
     21  0.000000D+00  0.000000D+00  0.000000D+00  0.713536D+00  0.000000D+00
     22 -0.839121D-02 -0.164158D-02  0.000000D+00  0.000000D+00  0.712969D+00
     23  0.121539D-04  0.000000D+00  0.000000D+00  0.151805D-04  0.732329D-05
     24  0.197358D-01  0.335983D-02  0.000000D+00 -0.653904D-02 -0.267139D-02
     25  0.124655D+01  0.906533D+00  0.000000D+00 -0.397794D+00 -0.164518D+00
     26  0.232950D+01  0.179012D+01  0.000000D+00 -0.203017D+00 -0.881427D-01
     27  0.121390D-04  0.000000D+00 -0.131468D-04 -0.759114D-05  0.732320D-05
     28  0.197239D-01  0.335720D-02  0.565880D-02  0.326735D-02 -0.266933D-02
     29  0.124631D+01  0.906349D+00  0.344442D+00  0.198878D+00 -0.164484D+00
     30  0.232938D+01  0.179002D+01  0.175815D+00  0.101514D+00 -0.881380D-01
     31  0.121390D-04  0.000000D+00  0.131468D-04 -0.759114D-05  0.732320D-05
     32  0.197239D-01  0.335720D-02 -0.565880D-02  0.326735D-02 -0.266933D-02
     33  0.124631D+01  0.906349D+00 -0.344442D+00  0.198878D+00 -0.164484D+00
     34  0.232938D+01  0.179002D+01 -0.175815D+00  0.101514D+00 -0.881380D-01
               11            12            13            14            15 
     11  0.199768D+02
     12  0.000000D+00  0.138528D+02
     13 -0.218700D-05  0.000000D+00  0.138528D+02
     14 -0.937245D-01  0.000000D+00  0.163221D-05  0.138189D+02
     15  0.123480D+02  0.000000D+00 -0.257557D-05 -0.110430D+00  0.113828D+02
     16  0.000000D+00  0.717496D+01  0.000000D+00  0.000000D+00  0.000000D+00
     17 -0.137330D-05  0.000000D+00  0.717496D+01  0.159523D-05 -0.336992D-05
[...]
   8        3PY  bi    -0.76103   0.19515  -0.00045   0.00001   0.00010
   9        3PZ  ar     0.00247   0.00010   0.00008  -0.05210  -0.79485
   9        3PZ  ai    -0.00142  -0.00006   0.00010  -0.00009   0.00000
   9        3PZ  br     0.00192  -0.00008   0.00010  -0.79485   0.05210
   9        3PZ  bi    -0.00073   0.00010   0.00006  -0.00000  -0.00009
  10 2   H  1S   ar     0.04101  -0.30718  -0.22418  -0.03275  -0.49961
  10 2   H  1S   ai     0.21810   0.00029  -0.06687  -0.00008   0.00000
  10 2   H  1S   br     0.12023   0.22418  -0.30718  -0.49961   0.03275
  10 2   H  1S   bi     0.26519  -0.06687  -0.00029  -0.00000  -0.00008
  11        2S   ar    -0.23038   1.26408   0.92226  -0.05381  -0.82086
  11        2S   ai    -0.86175  -0.00000   0.27348   0.00003  -0.00001
  11        2S   br    -0.54259  -0.92226   1.26408  -0.82086   0.05381
  11        2S   bi    -1.07277   0.27348   0.00000   0.00001   0.00003
  12 3   H  1S   ar     0.13316   0.14934   0.16321  -0.03278  -0.49966
  12 3   H  1S   ai    -0.14473  -0.24794  -0.14971  -0.00004  -0.00000
  12 3   H  1S   br    -0.32123  -0.16321   0.14934  -0.49966   0.03278
  12 3   H  1S   bi     0.00564  -0.14971   0.24794   0.00000  -0.00004
  13        2S   ar    -0.61140  -0.62538  -0.68112  -0.05369  -0.82071
  13        2S   ai     0.63805   1.02754   0.61644  -0.00015   0.00000
  13        2S   br     1.28236   0.68112  -0.62538  -0.82071   0.05369
  13        2S   bi     0.00000   0.61644  -1.02754  -0.00000  -0.00015
  14 4   H  1S   ar    -0.24142   0.14990   0.05489  -0.03273  -0.49967
  14 4   H  1S   ai    -0.02952   0.24898   0.21296  -0.00004  -0.00000
  14 4   H  1S   br     0.15058  -0.05489   0.14990  -0.49967   0.03273
  14 4   H  1S   bi    -0.24509   0.21296  -0.24898   0.00000  -0.00004
  15        2S   ar     0.93715  -0.62773  -0.23273  -0.05390  -0.82069
  15        2S   ai     0.16176  -1.02944  -0.88482  -0.00015   0.00000
  15        2S   br    -0.66817   0.23273  -0.62773  -0.82069   0.05390
  15        2S   bi     1.03658  -0.88482   1.02944  -0.00000  -0.00015
 Density matrix (real):
                1a            1b            2a            2b            3a
      1a 0.103622D+01
      1b 0.000000D+00  0.103622D+01
      2a-0.703963D-01  0.000000D+00  0.197962D+00
      2b 0.000000D+00 -0.703963D-01  0.000000D+00  0.197962D+00
      3a 0.000000D+00  0.106744D-04  0.000000D+00 -0.200439D-04  0.229718D+00
      3b-0.106744D-04  0.000000D+00  0.200439D-04  0.000000D+00  0.000000D+00
      4a 0.111556D-05  0.000000D+00 -0.354960D-05  0.000000D+00  0.000000D+00
      4b 0.000000D+00  0.111556D-05  0.000000D+00 -0.354960D-05  0.000000D+00
      5a-0.168027D-01  0.000000D+00  0.378818D-01  0.000000D+00  0.000000D+00
      5b 0.000000D+00 -0.168027D-01  0.000000D+00  0.378818D-01 -0.269596D-03
      6a-0.117227D+00  0.000000D+00  0.225002D+00  0.000000D+00  0.000000D+00
      6b 0.000000D+00 -0.117227D+00  0.000000D+00  0.225002D+00 -0.557426D-04
      7a 0.000000D+00 -0.283045D-05  0.000000D+00  0.117140D-04  0.112051D+00
      7b 0.283045D-05  0.000000D+00 -0.117140D-04  0.000000D+00  0.000000D+00
      8a 0.000000D+00  0.000000D+00  0.000000D+00  0.000000D+00  0.000000D+00
      8b 0.000000D+00  0.000000D+00  0.000000D+00  0.000000D+00  0.000000D+00
      9a-0.188775D-01  0.000000D+00  0.499814D-01  0.000000D+00  0.000000D+00
      9b 0.000000D+00 -0.188775D-01  0.000000D+00  0.499814D-01 -0.851694D-04
     10a-0.239106D-01  0.000000D+00  0.500165D-01  0.000000D+00  0.000000D+00
     10b 0.000000D+00 -0.239106D-01  0.000000D+00  0.500165D-01  0.152058D-04
     11a 0.410850D-02  0.000000D+00 -0.368333D-02  0.000000D+00  0.000000D+00
     11b 0.000000D+00  0.410850D-02  0.000000D+00 -0.368333D-02  0.598514D-05
     12a-0.239080D-01 -0.437428D-05  0.500102D-01  0.153343D-04  0.124352D+00
     12b 0.437428D-05 -0.239080D-01 -0.153343D-04  0.500102D-01  0.142188D-04
     13a 0.410799D-02 -0.107094D-04 -0.368362D-02  0.273531D-04  0.808804D-01
     13b 0.107094D-04  0.410799D-02 -0.273531D-04 -0.368362D-02  0.379120D-05
     14a-0.239080D-01  0.437436D-05  0.500102D-01 -0.153340D-04 -0.124352D+00
     14b-0.437436D-05 -0.239080D-01  0.153340D-04  0.500102D-01  0.142202D-04
     15a 0.410799D-02  0.107078D-04 -0.368362D-02 -0.273501D-04 -0.808804D-01
     15b-0.107078D-04  0.410799D-02  0.273501D-04 -0.368362D-02  0.378875D-05
                3b            4a            4b            5a            5b
      3b 0.229718D+00
      4a 0.000000D+00  0.229722D+00
      4b 0.000000D+00  0.000000D+00  0.229722D+00
      5a 0.269596D-03  0.267536D-05  0.000000D+00  0.324184D+00
      5b 0.000000D+00  0.000000D+00  0.267536D-05  0.000000D+00  0.324184D+00
      6a 0.557426D-04  0.326652D-05  0.000000D+00  0.101547D+00  0.000000D+00
      6b 0.000000D+00  0.000000D+00  0.326652D-05  0.000000D+00  0.101547D+00
      7a 0.000000D+00  0.000000D+00  0.000000D+00  0.000000D+00  0.481980D-05
      7b 0.112051D+00  0.000000D+00  0.000000D+00 -0.481980D-05  0.000000D+00
      8a 0.000000D+00  0.112046D+00  0.000000D+00 -0.117560D-05  0.000000D+00
      8b 0.000000D+00  0.000000D+00  0.112046D+00  0.000000D+00 -0.117560D-05
      9a 0.851694D-04 -0.126094D-05  0.000000D+00  0.278624D+00  0.000000D+00
      9b 0.000000D+00  0.000000D+00 -0.126094D-05  0.000000D+00  0.278624D+00
     10a-0.152058D-04 -0.143593D+00  0.000000D+00 -0.460176D-01  0.000000D+00
     10b 0.000000D+00  0.000000D+00 -0.143593D+00  0.000000D+00 -0.460176D-01
     11a-0.598514D-05 -0.933857D-01  0.000000D+00 -0.263624D-01  0.000000D+00
     11b 0.000000D+00  0.000000D+00 -0.933857D-01  0.000000D+00 -0.263624D-01
     12a-0.142188D-04  0.717970D-01  0.000000D+00 -0.460122D-01 -0.958444D-05
     12b 0.124352D+00  0.000000D+00  0.717970D-01  0.958444D-05 -0.460122D-01
     13a-0.379120D-05  0.466960D-01  0.126552D-05 -0.263620D-01  0.501518D-04
     13b 0.808804D-01 -0.126552D-05  0.466960D-01 -0.501518D-04 -0.263620D-01
     14a-0.142202D-04  0.717970D-01  0.000000D+00 -0.460122D-01  0.958299D-05
     14b-0.124352D+00  0.000000D+00  0.717970D-01 -0.958299D-05 -0.460122D-01
     15a-0.378875D-05  0.466960D-01 -0.126902D-05 -0.263619D-01 -0.501428D-04
     15b-0.808804D-01  0.126902D-05  0.466960D-01  0.501428D-04 -0.263619D-01
                6a            6b            7a            7b            8a
      6a 0.267854D+00
      6b 0.000000D+00  0.267854D+00
      7a 0.000000D+00  0.215937D-04  0.546559D-01
      7b-0.215937D-04  0.000000D+00  0.000000D+00  0.546559D-01
      8a 0.268121D-05  0.000000D+00  0.000000D+00  0.000000D+00  0.546499D-01
      8b 0.000000D+00  0.268121D-05  0.000000D+00  0.000000D+00  0.000000D+00
      9a 0.106402D+00  0.000000D+00  0.000000D+00 -0.760648D-04 -0.259550D-05
      9b 0.000000D+00  0.106402D+00  0.760648D-04  0.000000D+00  0.000000D+00
     10a 0.468278D-01  0.000000D+00  0.000000D+00  0.995172D-05 -0.700360D-01
     10b 0.000000D+00  0.468278D-01 -0.995172D-05  0.000000D+00  0.000000D+00
     11a-0.901585D-02  0.000000D+00  0.000000D+00  0.792253D-05 -0.455483D-01
     11b 0.000000D+00 -0.901585D-02 -0.792253D-05  0.000000D+00  0.000000D+00
     12a 0.468282D-01  0.238006D-04  0.606559D-01  0.110094D-04  0.350195D-01
     12b-0.238006D-04  0.468282D-01 -0.110094D-04  0.606559D-01  0.000000D+00
     13a-0.901200D-02  0.450660D-04  0.394516D-01  0.936933D-05  0.227760D-01
     13b-0.450660D-04 -0.901200D-02 -0.936933D-05  0.394516D-01  0.000000D+00
     14a 0.468282D-01 -0.238020D-04 -0.606559D-01  0.110106D-04  0.350195D-01
     14b 0.238020D-04  0.468282D-01 -0.110106D-04 -0.606559D-01  0.000000D+00
     15a-0.901200D-02 -0.450620D-04 -0.394516D-01  0.937171D-05  0.227760D-01
     15b 0.450620D-04 -0.901200D-02 -0.937171D-05 -0.394516D-01  0.000000D+00
                8b            9a            9b           10a           10b
      8b 0.546499D-01
      9a 0.000000D+00  0.241039D+00
      9b-0.259550D-05  0.000000D+00  0.241039D+00
     10a 0.000000D+00 -0.345730D-01  0.000000D+00  0.112186D+00
     10b-0.700360D-01  0.000000D+00 -0.345730D-01  0.000000D+00  0.112186D+00
     11a 0.000000D+00 -0.227062D-01  0.000000D+00  0.619250D-01  0.000000D+00
     11b-0.455483D-01  0.000000D+00 -0.227062D-01  0.000000D+00  0.619250D-01
     12a 0.000000D+00 -0.345719D-01  0.719642D-04 -0.224501D-01 -0.854014D-05
     12b 0.350195D-01 -0.719642D-04 -0.345719D-01  0.854014D-05 -0.224501D-01
     13a 0.000000D+00 -0.227078D-01  0.962313D-04 -0.256356D-01 -0.110206D-04
     13b 0.227760D-01 -0.962313D-04 -0.227078D-01  0.110206D-04 -0.256356D-01
     14a 0.000000D+00 -0.345719D-01 -0.719652D-04 -0.224501D-01  0.854064D-05
     14b 0.350195D-01  0.719652D-04 -0.345719D-01 -0.854064D-05 -0.224501D-01
     15a 0.000000D+00 -0.227078D-01 -0.962230D-04 -0.256356D-01  0.110233D-04
     15b 0.227760D-01  0.962230D-04 -0.227078D-01 -0.110233D-04 -0.256356D-01
               11a           11b           12a           12b           13a
     11a 0.401147D-01
     11b 0.000000D+00  0.401147D-01
     12a-0.256348D-01 -0.810630D-05  0.112181D+00
     12b 0.810630D-05 -0.256348D-01  0.000000D+00  0.112181D+00
     13a-0.168308D-01 -0.102571D-04  0.619295D-01 -0.123552D-05  0.401209D-01
     13b 0.102571D-04 -0.168308D-01  0.123552D-05  0.619295D-01  0.000000D+00
     14a-0.256348D-01  0.810197D-05 -0.224484D-01  0.170788D-04 -0.256356D-01
     14b-0.810197D-05 -0.256348D-01 -0.170788D-04 -0.224484D-01 -0.191259D-04
     15a-0.168308D-01  0.102555D-04 -0.256356D-01  0.191252D-04 -0.168329D-01
     15b-0.102555D-04 -0.168308D-01 -0.191252D-04 -0.256356D-01 -0.205135D-04
               13b           14a           14b           15a           15b
     13b 0.401209D-01
     14a 0.191259D-04  0.112181D+00
     14b-0.256356D-01  0.000000D+00  0.112181D+00
     15a 0.205135D-04  0.619295D-01  0.123117D-05  0.401209D-01
     15b-0.168329D-01 -0.123117D-05  0.619295D-01  0.000000D+00  0.401209D-01
 Density matrix (imaginary):
                1a            1b            2a            2b            3a
      1a 0.000000D+00
      1b-0.000000D+00  0.000000D+00
      2a-0.000000D+00 -0.000000D+00  0.000000D+00
      2b-0.000000D+00 -0.000000D+00 -0.000000D+00  0.000000D+00
      3a-0.000000D+00 -0.000000D+00 -0.000000D+00 -0.000000D+00  0.000000D+00
      3b-0.000000D+00 -0.000000D+00 -0.000000D+00 -0.000000D+00 -0.000000D+00
      4a-0.000000D+00 -0.106740D-04 -0.000000D+00  0.200420D-04 -0.198781D-03
      4b-0.106740D-04 -0.000000D+00  0.200420D-04 -0.000000D+00 -0.000000D+00
      5a-0.000000D+00 -0.000000D+00 -0.000000D+00 -0.000000D+00 -0.000000D+00
      5b-0.000000D+00 -0.000000D+00 -0.000000D+00 -0.000000D+00 -0.000000D+00
      6a-0.000000D+00 -0.000000D+00 -0.000000D+00 -0.000000D+00 -0.000000D+00
      6b-0.000000D+00 -0.000000D+00 -0.000000D+00 -0.000000D+00 -0.000000D+00
      7a-0.000000D+00 -0.000000D+00 -0.000000D+00 -0.000000D+00 -0.000000D+00
      7b-0.000000D+00 -0.000000D+00 -0.000000D+00 -0.000000D+00 -0.000000D+00
      8a-0.000000D+00  0.283089D-05 -0.000000D+00 -0.117149D-04 -0.512850D-05
      8b 0.283089D-05 -0.000000D+00 -0.117149D-04 -0.000000D+00 -0.000000D+00
      9a-0.000000D+00 -0.000000D+00 -0.000000D+00 -0.000000D+00 -0.000000D+00
      9b-0.000000D+00 -0.000000D+00 -0.000000D+00 -0.000000D+00 -0.000000D+00
     10a-0.000000D+00 -0.505078D-05 -0.000000D+00  0.177057D-04  0.383078D-04
     10b-0.505078D-05 -0.000000D+00  0.177057D-04 -0.000000D+00 -0.000000D+00
     11a-0.000000D+00 -0.123638D-04 -0.000000D+00  0.315794D-04  0.130291D-04
     11b-0.123638D-04 -0.000000D+00  0.315794D-04 -0.000000D+00 -0.000000D+00
     12a-0.000000D+00  0.252529D-05 -0.000000D+00 -0.885255D-05 -0.191529D-04
     12b 0.252529D-05 -0.000000D+00 -0.885255D-05 -0.000000D+00 -0.000000D+00
     13a-0.000000D+00  0.618249D-05 -0.000000D+00 -0.157910D-04 -0.651557D-05
     13b 0.618249D-05 -0.000000D+00 -0.157910D-04 -0.000000D+00 -0.126558D-05
     14a-0.000000D+00  0.252545D-05 -0.000000D+00 -0.885293D-05 -0.191546D-04
     14b 0.252545D-05 -0.000000D+00 -0.885293D-05 -0.000000D+00 -0.000000D+00
     15a-0.000000D+00  0.618281D-05 -0.000000D+00 -0.157918D-04 -0.651097D-05
     15b 0.618281D-05 -0.000000D+00 -0.157918D-04 -0.000000D+00  0.126728D-05
                3b            4a            4b            5a            5b
      3b 0.000000D+00
      4a-0.000000D+00  0.000000D+00
      4b 0.198781D-03 -0.000000D+00  0.000000D+00
      5a-0.000000D+00 -0.000000D+00 -0.269589D-03  0.000000D+00
      5b-0.000000D+00 -0.269589D-03 -0.000000D+00 -0.000000D+00  0.000000D+00
      6a-0.000000D+00 -0.000000D+00 -0.557409D-04 -0.000000D+00 -0.000000D+00
      6b-0.000000D+00 -0.557409D-04 -0.000000D+00 -0.000000D+00 -0.000000D+00
      7a-0.000000D+00  0.513097D-05 -0.000000D+00 -0.000000D+00 -0.000000D+00
      7b-0.000000D+00 -0.000000D+00 -0.513097D-05 -0.000000D+00 -0.000000D+00
      8a-0.000000D+00 -0.000000D+00 -0.000000D+00 -0.000000D+00 -0.482822D-05
      8b 0.512850D-05 -0.000000D+00 -0.000000D+00 -0.482822D-05 -0.000000D+00
      9a-0.000000D+00 -0.000000D+00 -0.851624D-04 -0.000000D+00 -0.000000D+00
      9b-0.000000D+00 -0.851624D-04 -0.000000D+00 -0.000000D+00 -0.000000D+00
     10a-0.000000D+00 -0.000000D+00  0.138926D-04 -0.000000D+00 -0.110713D-04
     10b-0.383078D-04  0.138926D-04 -0.000000D+00 -0.110713D-04 -0.000000D+00
     11a-0.000000D+00 -0.000000D+00  0.306095D-05 -0.000000D+00  0.578936D-04
     11b-0.130291D-04  0.306095D-05 -0.000000D+00  0.578936D-04 -0.000000D+00
     12a-0.000000D+00  0.331731D-04  0.148741D-04 -0.000000D+00  0.553302D-05
     12b 0.191529D-04  0.148741D-04 -0.331731D-04  0.553302D-05 -0.000000D+00
     13a-0.126558D-05  0.112817D-04  0.525385D-05 -0.000000D+00 -0.289536D-04
     13b 0.651557D-05  0.525385D-05 -0.112817D-04 -0.289536D-04 -0.000000D+00
     14a-0.000000D+00 -0.331720D-04  0.148755D-04 -0.000000D+00  0.553402D-05
     14b 0.191546D-04  0.148755D-04  0.331720D-04  0.553402D-05 -0.000000D+00
     15a 0.126728D-05 -0.112840D-04  0.525131D-05 -0.000000D+00 -0.289547D-04
     15b 0.651097D-05  0.525131D-05  0.112840D-04 -0.289547D-04 -0.000000D+00
                6a            6b            7a            7b            8a
      6a 0.000000D+00
      6b-0.000000D+00  0.000000D+00
      7a-0.000000D+00 -0.000000D+00  0.000000D+00
      7b-0.000000D+00 -0.000000D+00 -0.000000D+00  0.000000D+00
      8a-0.000000D+00 -0.215949D-04  0.422306D-04 -0.000000D+00  0.000000D+00
      8b-0.215949D-04 -0.000000D+00 -0.000000D+00 -0.422306D-04 -0.000000D+00
      9a-0.000000D+00 -0.000000D+00 -0.000000D+00 -0.000000D+00 -0.000000D+00
      9b-0.000000D+00 -0.000000D+00 -0.000000D+00 -0.000000D+00  0.760678D-04
     10a-0.000000D+00  0.274808D-04 -0.386481D-04 -0.000000D+00 -0.000000D+00
     10b 0.274808D-04 -0.000000D+00 -0.000000D+00  0.386481D-04 -0.113643D-04
     11a-0.000000D+00  0.520280D-04 -0.309040D-04 -0.000000D+00 -0.000000D+00
     11b 0.520280D-04 -0.000000D+00 -0.000000D+00  0.309040D-04 -0.985209D-05
     12a-0.000000D+00 -0.137407D-04  0.193235D-04 -0.000000D+00 -0.334724D-04
     12b-0.137407D-04 -0.000000D+00 -0.000000D+00 -0.193235D-04 -0.103039D-04
     13a-0.000000D+00 -0.260171D-04  0.154520D-04 -0.000000D+00 -0.267683D-04
     13b-0.260171D-04 -0.000000D+00 -0.000000D+00 -0.154520D-04 -0.840409D-05
     14a-0.000000D+00 -0.137405D-04  0.193252D-04 -0.000000D+00  0.334682D-04
     14b-0.137405D-04 -0.000000D+00 -0.000000D+00 -0.193252D-04 -0.103049D-04
     15a-0.000000D+00 -0.260179D-04  0.154559D-04 -0.000000D+00  0.267638D-04
     15b-0.260179D-04 -0.000000D+00 -0.000000D+00 -0.154559D-04 -0.840644D-05
                8b            9a            9b           10a           10b
      8b 0.000000D+00
      9a 0.760678D-04  0.000000D+00
      9b-0.000000D+00 -0.000000D+00  0.000000D+00
     10a-0.113643D-04 -0.000000D+00  0.830946D-04  0.000000D+00
     10b-0.000000D+00  0.830946D-04 -0.000000D+00 -0.000000D+00  0.000000D+00
     11a-0.985209D-05 -0.000000D+00  0.111098D-03 -0.000000D+00 -0.142520D-05
     11b-0.000000D+00  0.111098D-03 -0.000000D+00 -0.142520D-05 -0.000000D+00
     12a-0.103039D-04 -0.000000D+00 -0.415497D-04  0.257229D-04  0.147910D-04
     12b 0.334724D-04 -0.415497D-04 -0.000000D+00  0.147910D-04 -0.257229D-04
     13a-0.840409D-05 -0.000000D+00 -0.555568D-04  0.231358D-04  0.157200D-04
     13b 0.267683D-04 -0.555568D-04 -0.000000D+00  0.157200D-04 -0.231358D-04
     14a-0.103049D-04 -0.000000D+00 -0.415493D-04 -0.257213D-04  0.147911D-04
     14b-0.334682D-04 -0.415493D-04 -0.000000D+00  0.147911D-04  0.257213D-04
     15a-0.840644D-05 -0.000000D+00 -0.555580D-04 -0.231362D-04  0.157224D-04
     15b-0.267638D-04 -0.555580D-04 -0.000000D+00  0.157224D-04  0.231362D-04
               11a           11b           12a           12b           13a
     11a 0.000000D+00
     11b-0.000000D+00  0.000000D+00
     12a 0.231319D-04  0.174037D-04  0.000000D+00
     12b 0.174037D-04 -0.231319D-04 -0.000000D+00  0.000000D+00
     13a 0.191986D-04  0.177628D-04 -0.000000D+00 -0.000000D+00  0.000000D+00
     13b 0.177628D-04 -0.191986D-04 -0.000000D+00 -0.000000D+00 -0.000000D+00
     14a-0.231353D-04  0.174015D-04  0.257222D-04 -0.000000D+00  0.231372D-04
     14b 0.174015D-04  0.231353D-04 -0.000000D+00 -0.257222D-04 -0.168354D-05
     15a-0.192027D-04  0.177629D-04  0.231358D-04  0.168377D-05  0.192029D-04
     15b 0.177629D-04  0.192027D-04  0.168377D-05 -0.231358D-04 -0.000000D+00
               13b           14a           14b           15a           15b
     13b 0.000000D+00
     14a-0.168354D-05  0.000000D+00
     14b-0.231372D-04 -0.000000D+00  0.000000D+00
     15a-0.000000D+00 -0.000000D+00 -0.000000D+00  0.000000D+00
     15b-0.192029D-04 -0.000000D+00 -0.000000D+00 -0.000000D+00  0.000000D+00
 Electronic spatial extent (au):  <R**2>=             26.3441
 Charge=              0.0000 electrons
 Dipole moment (field-independent basis, Debye):
    X=             -0.0000    Y=              0.0001    Z=             -2.2870  Tot=              2.2870
 Quadrupole moment (field-independent basis, Debye-Ang):
   XX=             -6.1134   YY=             -6.1132   ZZ=             -8.4378
   XY=             -0.0000   XZ=              0.0000   YZ=             -0.0000
 Traceless Quadrupole moment (field-independent basis, Debye-Ang):
   XX=              0.7748   YY=              0.7749   ZZ=             -1.5497
   XY=             -0.0000   XZ=              0.0000   YZ=             -0.0000
 Octapole moment (field-independent basis, Debye-Ang**2):
  XXX=             -0.0000  YYY=             -0.7410  ZZZ=              1.0282  XYY=             -0.0000
  XXY=              0.7407  XXZ=             -0.2200  XZZ=             -0.0000  YZZ=             -0.0001
  YYZ=             -0.2200  XYZ=              0.0000
 Hexadecapole moment (field-independent basis, Debye-Ang**3):
 XXXX=             -9.4725 YYYY=             -9.4722 ZZZZ=             -9.6320 XXXY=             -0.0000
 XXXZ=              0.0000 YYYX=             -0.0000 YYYZ=              0.3638 ZZZX=              0.0000
 ZZZY=              0.0001 XXYY=             -3.1574 XXZZ=             -3.1207 YYZZ=             -3.1206
 XXYZ=             -0.3638 YYXZ=              0.0000 ZZXY=             -0.0000
 MulPop does not work for GHF yet.
 Leave Link  601 at Wed Apr  5 10:34:29 2023, MaxMem=  6710886400 cpu:               1.4 elap:               0.1
 (Enter /sw/contrib/gaussian/gdv/J14pnew/gdv/l9999.exe)

 This type of calculation cannot be archived.


 NOTHING WILL BE ATTEMPTED IF ALL POSSIBLE OBJECTIONS
 MUST FIRST BE OVERCOME.

                               -- THE GOLDEN PRINCIPLE,
                    PAUL DICKSON'S "THE OFFICIAL RULES"
 Job cpu time:       0 days  0 hours  0 minutes 35.0 seconds.
 Elapsed time:       0 days  0 hours  0 minutes  1.6 seconds.
 File lengths (MBytes):  RWF=     72 Int=      0 D2E=      0 Chk=      8 Scr=      8
 Normal termination of Gaussian DV at Wed Apr  5 10:34:29 2023.
