 Entering Gaussian System, Link 0=g16
 Input=/Users/laurenkoulias/Downloads/water_td-rhf.gjf
 Output=/Users/laurenkoulias/Downloads/water_td-rhf.log
 Initial command:
 /Applications/g16/l1.exe "/Users/laurenkoulias/Downloads/Gau-29740.inp" -scrdir="/Users/laurenkoulias/Downloads/"
 Entering Link 1 = /Applications/g16/l1.exe PID=     29741.
  
 Copyright (c) 1988-2017, Gaussian, Inc.  All Rights Reserved.
  
 This is part of the Gaussian(R) 16 program.  It is based on
 the Gaussian(R) 09 system (copyright 2009, Gaussian, Inc.),
 the Gaussian(R) 03 system (copyright 2003, Gaussian, Inc.),
 the Gaussian(R) 98 system (copyright 1998, Gaussian, Inc.),
 the Gaussian(R) 94 system (copyright 1995, Gaussian, Inc.),
 the Gaussian 92(TM) system (copyright 1992, Gaussian, Inc.),
 the Gaussian 90(TM) system (copyright 1990, Gaussian, Inc.),
 the Gaussian 88(TM) system (copyright 1988, Gaussian, Inc.),
 the Gaussian 86(TM) system (copyright 1986, Carnegie Mellon
 University), and the Gaussian 82(TM) system (copyright 1983,
 Carnegie Mellon University). Gaussian is a federally registered
 trademark of Gaussian, Inc.
  
 This software contains proprietary and confidential information,
 including trade secrets, belonging to Gaussian, Inc.
  
 This software is provided under written license and may be
 used, copied, transmitted, or stored only in accord with that
 written license.
  
 The following legend is applicable only to US Government
 contracts under FAR:
  
                    RESTRICTED RIGHTS LEGEND
  
 Use, reproduction and disclosure by the US Government is
 subject to restrictions as set forth in subparagraphs (a)
 and (c) of the Commercial Computer Software - Restricted
 Rights clause in FAR 52.227-19.
  
 Gaussian, Inc.
 340 Quinnipiac St., Bldg. 40, Wallingford CT 06492
  
  
 ---------------------------------------------------------------
 Warning -- This program may not be used in any manner that
 competes with the business of Gaussian, Inc. or will provide
 assistance to any competitor of Gaussian, Inc.  The licensee
 of this program is prohibited from giving any competitor of
 Gaussian, Inc. access to this program.  By using this program,
 the user acknowledges that Gaussian, Inc. is engaged in the
 business of creating and licensing software in the field of
 computational chemistry and represents and warrants to the
 licensee that it is not a competitor of Gaussian, Inc. and that
 it will not use this program in any manner prohibited above.
 ---------------------------------------------------------------
  

 Cite this work as:
 Gaussian 16, Revision B.01,
 M. J. Frisch, G. W. Trucks, H. B. Schlegel, G. E. Scuseria, 
 M. A. Robb, J. R. Cheeseman, G. Scalmani, V. Barone, 
 G. A. Petersson, H. Nakatsuji, X. Li, M. Caricato, A. V. Marenich, 
 J. Bloino, B. G. Janesko, R. Gomperts, B. Mennucci, H. P. Hratchian, 
 J. V. Ortiz, A. F. Izmaylov, J. L. Sonnenberg, D. Williams-Young, 
 F. Ding, F. Lipparini, F. Egidi, J. Goings, B. Peng, A. Petrone, 
 T. Henderson, D. Ranasinghe, V. G. Zakrzewski, J. Gao, N. Rega, 
 G. Zheng, W. Liang, M. Hada, M. Ehara, K. Toyota, R. Fukuda, 
 J. Hasegawa, M. Ishida, T. Nakajima, Y. Honda, O. Kitao, H. Nakai, 
 T. Vreven, K. Throssell, J. A. Montgomery, Jr., J. E. Peralta, 
 F. Ogliaro, M. J. Bearpark, J. J. Heyd, E. N. Brothers, K. N. Kudin, 
 V. N. Staroverov, T. A. Keith, R. Kobayashi, J. Normand, 
 K. Raghavachari, A. P. Rendell, J. C. Burant, S. S. Iyengar, 
 J. Tomasi, M. Cossi, J. M. Millam, M. Klene, C. Adamo, R. Cammi, 
 J. W. Ochterski, R. L. Martin, K. Morokuma, O. Farkas, 
 J. B. Foresman, and D. J. Fox, Gaussian, Inc., Wallingford CT, 2016.
 
 ******************************************
 Gaussian 16:  EM64M-G16RevB.01 20-Dec-2017
                27-Jul-2022 
 ******************************************
 %chk=water_td-rhf.chk
 ------------------------------------------------
 # td=(nstates=10) rhf/3-21g pop=full iop(3/33=1)
 ------------------------------------------------
 1/38=1,172=1/1;
 2/12=2,17=6,18=5,40=1/2;
 3/5=5,11=1,25=1,30=1,33=1,116=1/1,2,3,8;
 4//1;
 5/5=2,38=5/2;
 8/6=1,10=1,108=10/1;
 9/41=10,42=1,70=2/14;
 6/7=3/1;
 99/5=1,9=1/99;
 -------------------
 Title Card Required
 -------------------
 Symbolic Z-matrix:
 Charge =  0 Multiplicity = 1
 O                     0.        0.        0.11081 
 H                     0.        0.78398  -0.44325 
 H                     0.       -0.78398  -0.44325 
 
                          Input orientation:                          
 ---------------------------------------------------------------------
 Center     Atomic      Atomic             Coordinates (Angstroms)
 Number     Number       Type             X           Y           Z
 ---------------------------------------------------------------------
      1          8           0        0.000000    0.000000    0.110812
      2          1           0        0.000000    0.783976   -0.443248
      3          1           0        0.000000   -0.783976   -0.443248
 ---------------------------------------------------------------------
                    Distance matrix (angstroms):
                    1          2          3
     1  O    0.000000
     2  H    0.960000   0.000000
     3  H    0.960000   1.567952   0.000000
 Stoichiometry    H2O
 Framework group  C2V[C2(O),SGV(H2)]
 Deg. of freedom     2
 Full point group                 C2V     NOp   4
 Largest Abelian subgroup         C2V     NOp   4
 Largest concise Abelian subgroup C2      NOp   2
                         Standard orientation:                         
 ---------------------------------------------------------------------
 Center     Atomic      Atomic             Coordinates (Angstroms)
 Number     Number       Type             X           Y           Z
 ---------------------------------------------------------------------
      1          8           0        0.000000   -0.000000    0.110812
      2          1           0        0.000000    0.783976   -0.443248
      3          1           0       -0.000000   -0.783976   -0.443248
 ---------------------------------------------------------------------
 Rotational constants (GHZ):         919.6758410         407.9402716         282.5913371
 Standard basis: 3-21G (6D, 7F)
                         Coordinates in L301:                         
 ---------------------------------------------------------------------
 Center     Atomic      Atomic             Coordinates (Angstroms)
 Number     Number       Type             X           Y           Z
 ---------------------------------------------------------------------
      1          8           0        0.000000   -0.000000    0.110812
      2          1           0        0.000000    0.783976   -0.443248
      3          1           0       -0.000000   -0.783976   -0.443248
 ---------------------------------------------------------------------
 FixB: optimizing general contractions.
 Ernie: Thresh=  0.10000D-02 Tol=  0.10000D-05 Strict=F.
 IA=     1 ShT= 0 ShC= 0 NL=   1 NS=   0.
 IA=     1 L=0 SC=0 ISt=    0 NBk=    0 NP=    0 IndPr=    0.
 IA=     1 ShT= 1 ShC= 0 NL=   2 NS=   1.
 IA=     1 L=1 SC=0 ISt=    0 NBk=    0 NP=    0 IndPr=    0.
 IA=     2 ShT= 0 ShC= 0 NL=   2 NS=   1.
 IA=     2 L=0 SC=0 ISt=    0 NBk=    0 NP=    0 IndPr=    0.
 IA=     3 ShT= 0 ShC= 0 NL=   2 NS=   1.
 IA=     3 L=0 SC=0 ISt=    0 NBk=    0 NP=    0 IndPr=    0.
 LdAtmC:  AtmChg=     8.000000     1.000000     1.000000
 AtZEff=     -5.6000000     -1.0000000     -1.0000000
 NEqShl: 
              1            2            3            4
     1            1            1            1            1
     2            2            2            2            2
     3            3            3            3            3
     4            4            6            4            6
     5            5            7            5            7
     6            6            4            6            4
     7            7            5            7            5
 NEqBas: 
              1            2            3            4
     1            1            1            1            1
     2            2            2            2            2
     3            3           -3           -3            3
     4            4           -4            4           -4
     5            5            5            5            5
     6            6            6            6            6
     7            7           -7           -7            7
     8            8           -8            8           -8
     9            9            9            9            9
    10           10           12           10           12
    11           11           13           11           13
    12           12           10           12           10
    13           13           11           13           11
 There are     7 symmetry adapted cartesian basis functions of A1  symmetry.
   1         1   1   1   1
   2         2   2   2   2
   3         5   5   5   5
   4         6   6   6   6
   5         9   9   9   9
   6        10  12  12  10
   7        11  13  13  11
 There are     0 symmetry adapted cartesian basis functions of A2  symmetry.
 There are     2 symmetry adapted cartesian basis functions of B1  symmetry.
   8         3   3   3   3
   9         7   7   7   7
 There are     4 symmetry adapted cartesian basis functions of B2  symmetry.
  10         4   4   4   4
  11         8   8   8   8
  12        10 -12 -12  10
  13        11 -13 -13  11
 Order= 1 2 4 3
 Reordered character table:
              1            2            3            4            5
     1            1            1            1            1            1
     2            2            1            1           -1           -1
     3            4            1           -1           -1            1
     4            3            1           -1            1           -1
 NEqShl: 
              1            2            3            4
     1            1            1            1            1
     2            2            2            2            2
     3            3            3            3            3
     4            4            6            4            6
     5            5            7            5            7
     6            6            4            6            4
     7            7            5            7            5
 NEqBas: 
              1            2            3            4
     1            1            1            1            1
     2            2            2            2            2
     3            3           -3           -3            3
     4            4           -4            4           -4
     5            5            5            5            5
     6            6            6            6            6
     7            7           -7           -7            7
     8            8           -8            8           -8
     9            9            9            9            9
    10           10           12           10           12
    11           11           13           11           13
    12           12           10           12           10
    13           13           11           13           11
 There are     7 symmetry adapted basis functions of A1  symmetry.
   1         1   1   1   1
   2         2   2   2   2
   3         5   5   5   5
   4         6   6   6   6
   5         9   9   9   9
   6        10  12  12  10
   7        11  13  13  11
 There are     0 symmetry adapted basis functions of A2  symmetry.
 There are     2 symmetry adapted basis functions of B1  symmetry.
   8         3   3   3   3
   9         7   7   7   7
 There are     4 symmetry adapted basis functions of B2  symmetry.
  10         4   4   4   4
  11         8   8   8   8
  12        10 -12 -12  10
  13        11 -13 -13  11
 Order= 1 2 4 3
 Reordered character table:
              1            2            3            4            5
     1            1            1            1            1            1
     2            2            1            1           -1           -1
     3            4            1           -1           -1            1
     4            3            1           -1            1           -1
    13 basis functions,    21 primitive gaussians,    13 cartesian basis functions
     5 alpha electrons        5 beta electrons
       nuclear repulsion energy         9.1571153740 Hartrees.
 IS=     1 IAt=     1 ISR=     1 T=0 IP=      1 IndIP=      1 IndIPD=      0 C=  3.209593D+00  0.000000D+00                             NZ=T
 IS=     1 IAt=     1 ISR=     1 T=0 IP=      2 IndIP=      2 IndIPD=      1 C=  4.599140D+00  0.000000D+00                             NZ=T
 IS=     1 IAt=     1 ISR=     1 T=0 IP=      3 IndIP=      3 IndIPD=      2 C=  2.925183D+00  0.000000D+00                             NZ=T
 IS=     2 IAt=     1 ISR=     2 T=1 IP=      1 IndIP=      4 IndIPD=      0 C= -1.293695D+00  4.257230D+00                             NZ=T
 IS=     2 IAt=     1 ISR=     2 T=1 IP=      2 IndIP=      5 IndIPD=      1 C=  1.224712D+00  2.149757D+00                             NZ=T
 IS=     3 IAt=     1 ISR=     3 T=1 IP=      1 IndIP=      6 IndIPD=      0 C=  3.406344D-01  4.164575D-01                             NZ=T
 IS=     4 IAt=     2 ISR=     1 T=0 IP=      1 IndIP=      7 IndIPD=      0 C=  3.971513D-01  0.000000D+00                             NZ=T
 IS=     4 IAt=     2 ISR=     1 T=0 IP=      2 IndIP=      8 IndIPD=      1 C=  5.579200D-01  0.000000D+00                             NZ=T
 IS=     5 IAt=     2 ISR=     2 T=0 IP=      1 IndIP=      9 IndIPD=      0 C=  1.995672D-01  0.000000D+00                             NZ=T
 IS=     6 IAt=     3 ISR=     1 T=0 IP=      1 IndIP=     10 IndIPD=      0 C=  3.971513D-01  0.000000D+00                             NZ=T
 IS=     6 IAt=     3 ISR=     1 T=0 IP=      2 IndIP=     11 IndIPD=      1 C=  5.579200D-01  0.000000D+00                             NZ=T
 IS=     7 IAt=     3 ISR=     2 T=0 IP=      1 IndIP=     12 IndIPD=      0 C=  1.995672D-01  0.000000D+00                             NZ=T
 IExCor=    0 DFT=F Ex=HF Corr=None ExCW=0 ScaHFX=  1.000000
 ScaDFX=  1.000000  1.000000  1.000000  1.000000 ScalE2=  1.000000  1.000000
 IRadAn=      5 IRanWt=     -1 IRanGd=            0 ICorTp=0 IEmpDi=  4
 NAtoms=    3 NActive=    3 NUniq=    2 SFac= 2.25D+00 NAtFMM=   60 NAOKFM=F Big=F
 Integral buffers will be    131072 words long.
 Raffenetti 1 integral format.
 Two-electron integral symmetry is turned on.
 NPDir=0 NMtPBC=     1 NCelOv=     1 NCel=       1 NClECP=     1 NCelD=      1
         NCelK=      1 NCelE2=     1 NClLst=     1 CellRange=     0.0.
 One-electron integrals computed using PRISM.
 Entering OneElI...
 Calculate overlap and kinetic energy integrals
    NBasis =  13  MinDer = 0  MaxDer = 0
 Requested accuracy = 0.1000D-12
 Symmetry will be used
 PrmmSu-InSpLW:  IPartL=    0 NPrtUS=    1 NPrtUL=    1 DoSpLW=F IThBeg=    0 IThEnd=    0 NThAct=    1.
 PrSmSu:  IncTry=   512 NBBP=             28 NTPThr=   100 NPartT=    1 Incr=           1 LDynOK=F GPUOK=F.
 PrsmSu:  NPrtUS=   1 ThrOK=F IAlg=2 LenDen=           0 ISkipM=0 DoSpLW=F IThBeg=    0 IThEnd=    0.
 Prism:   IPart=     0 DynPar=F LinDyn=F Incr=           1.
 PRISM was handed   104854372 working-precision words and    28 shell-pairs
 IPart=  0 NShTot=          18 NBatch=          14 AvBLen=         1.3
 PrSmSu:  NxtVal=              2.
 *** Overlap *** 
                1             2             3             4             5 
      1  0.100000D+01
      2  0.209215D+00  0.100000D+01
      3  0.000000D+00  0.000000D+00  0.100000D+01
      4  0.000000D+00  0.000000D+00  0.000000D+00  0.100000D+01
      5  0.000000D+00  0.000000D+00  0.000000D+00  0.000000D+00  0.100000D+01
      6  0.183087D+00  0.740016D+00  0.000000D+00  0.000000D+00  0.000000D+00
      7  0.000000D+00  0.000000D+00  0.498767D+00  0.000000D+00  0.000000D+00
      8  0.000000D+00  0.000000D+00  0.000000D+00  0.498767D+00  0.000000D+00
      9  0.000000D+00  0.000000D+00  0.000000D+00  0.000000D+00  0.498767D+00
     10  0.224764D-01  0.159991D+00  0.000000D+00  0.166304D+00 -0.117532D+00
     11  0.606624D-01  0.301602D+00  0.000000D+00  0.965067D-01 -0.682042D-01
     12  0.224764D-01  0.159991D+00  0.000000D+00 -0.166304D+00 -0.117532D+00
     13  0.606624D-01  0.301602D+00  0.000000D+00 -0.965067D-01 -0.682042D-01
                6             7             8             9            10 
      6  0.100000D+01
      7  0.000000D+00  0.100000D+01
      8  0.000000D+00  0.000000D+00  0.100000D+01
      9  0.000000D+00  0.000000D+00  0.000000D+00  0.100000D+01
     10  0.363096D+00  0.000000D+00  0.460177D+00 -0.325221D+00  0.100000D+01
     11  0.607804D+00  0.000000D+00  0.362155D+00 -0.255946D+00  0.645898D+00
     12  0.363096D+00  0.000000D+00 -0.460177D+00 -0.325221D+00  0.222238D-01
     13  0.607804D+00  0.000000D+00 -0.362155D+00 -0.255946D+00  0.171353D+00
               11            12            13 
     11  0.100000D+01
     12  0.171353D+00  0.100000D+01
     13  0.447467D+00  0.645898D+00  0.100000D+01
 *** Kinetic Energy *** 
                1             2             3             4             5 
      1  0.304699D+02
      2 -0.285421D+01  0.278788D+01
      3  0.000000D+00  0.000000D+00  0.535131D+01
      4  0.000000D+00  0.000000D+00  0.000000D+00  0.535131D+01
      5  0.000000D+00  0.000000D+00  0.000000D+00  0.000000D+00  0.535131D+01
      6  0.198958D+00  0.652395D+00  0.000000D+00  0.000000D+00  0.000000D+00
      7  0.000000D+00  0.000000D+00  0.761164D+00  0.000000D+00  0.000000D+00
      8  0.000000D+00  0.000000D+00  0.000000D+00  0.761164D+00  0.000000D+00
      9  0.000000D+00  0.000000D+00  0.000000D+00  0.000000D+00  0.761164D+00
     10 -0.359447D-01 -0.477572D-01  0.000000D+00  0.100489D+00 -0.710183D-01
     11  0.198349D-01  0.946082D-01  0.000000D+00  0.622634D-01 -0.440034D-01
     12 -0.359447D-01 -0.477572D-01  0.000000D+00 -0.100489D+00 -0.710183D-01
     13  0.198349D-01  0.946082D-01  0.000000D+00 -0.622634D-01 -0.440034D-01
                6             7             8             9            10 
      6  0.560526D+00
      7  0.000000D+00  0.934210D+00
      8  0.000000D+00  0.000000D+00  0.934210D+00
      9  0.000000D+00  0.000000D+00  0.000000D+00  0.934210D+00
     10  0.120510D+00  0.000000D+00  0.394052D+00 -0.278488D+00  0.154940D+01
     11  0.163693D+00  0.000000D+00  0.186573D+00 -0.131857D+00  0.293151D+00
     12  0.120510D+00  0.000000D+00 -0.394052D+00 -0.278488D+00 -0.403318D-01
     13  0.163693D+00  0.000000D+00 -0.186573D+00 -0.131857D+00  0.893196D-02
               11            12            13 
     11  0.274787D+00
     12  0.893196D-02  0.154940D+01
     13  0.570401D-01  0.293151D+00  0.274787D+00
 Entering OneElI...
 Calculate potential energy integrals
    NBasis =  13  MinDer = 0  MaxDer = 0
 Requested accuracy = 0.1000D-12
 Symmetry will be used
 PrmmSu-InSpLW:  IPartL=    0 NPrtUS=    1 NPrtUL=    1 DoSpLW=F IThBeg=    0 IThEnd=    0 NThAct=    1.
 PrSmSu:  IncTry=   512 NBBP=             84 NTPThr=   100 NPartT=    1 Incr=           1 LDynOK=F GPUOK=F.
 PrsmSu:  NPrtUS=   1 ThrOK=F IAlg=2 LenDen=           0 ISkipM=0 DoSpLW=F IThBeg=    0 IThEnd=    0.
 Prism:   IPart=     0 DynPar=F LinDyn=F Incr=           1.
 PRISM was handed   104854270 working-precision words and    28 shell-pairs
 IPart=  0 NShTot=          54 NBatch=          18 AvBLen=         3.0
 PrSmSu:  NxtVal=              2.
 ***** Potential Energy ***** 
                1             2             3             4             5 
      1  0.633463D+02
      2  0.485090D+01  0.129618D+02
      3  0.000000D+00  0.000000D+00  0.140402D+02
      4  0.000000D+00  0.000000D+00  0.000000D+00  0.141268D+02
      5 -0.227624D-01 -0.149150D+00  0.000000D+00  0.000000D+00  0.140835D+02
      6  0.662581D+01  0.872146D+01  0.000000D+00  0.000000D+00 -0.142409D+00
      7  0.000000D+00  0.000000D+00  0.494554D+01  0.000000D+00  0.000000D+00
      8  0.000000D+00  0.000000D+00  0.000000D+00  0.502547D+01  0.000000D+00
      9 -0.322058D-02 -0.902213D-01  0.000000D+00  0.000000D+00  0.498546D+01
     10  0.776073D+00  0.170830D+01  0.000000D+00  0.160309D+01 -0.114804D+01
     11  0.216690D+01  0.338616D+01  0.000000D+00  0.920001D+00 -0.705663D+00
     12  0.776073D+00  0.170830D+01  0.000000D+00 -0.160309D+01 -0.114804D+01
     13  0.216690D+01  0.338616D+01  0.000000D+00 -0.920001D+00 -0.705663D+00
                6             7             8             9            10 
      6  0.887708D+01
      7  0.000000D+00  0.609152D+01
      8  0.000000D+00  0.000000D+00  0.634897D+01
      9 -0.235868D+00  0.000000D+00  0.000000D+00  0.622011D+01
     10  0.274662D+01  0.000000D+00  0.299195D+01 -0.213766D+01  0.646467D+01
     11  0.452184D+01  0.000000D+00  0.198312D+01 -0.152667D+01  0.382188D+01
     12  0.274662D+01  0.000000D+00 -0.299195D+01 -0.213766D+01  0.189661D+00
     13  0.452184D+01  0.000000D+00 -0.198312D+01 -0.152667D+01  0.118110D+01
               11            12            13 
     11  0.489542D+01
     12  0.118110D+01  0.646467D+01
     13  0.263398D+01  0.382188D+01  0.489542D+01
 ****** Core Hamiltonian ****** 
                1             2             3             4             5 
      1 -0.328764D+02
      2 -0.770510D+01 -0.101739D+02
      3  0.000000D+00  0.000000D+00 -0.868886D+01
      4  0.000000D+00  0.000000D+00  0.000000D+00 -0.877553D+01
      5  0.227624D-01  0.149150D+00  0.000000D+00  0.000000D+00 -0.873215D+01
      6 -0.642686D+01 -0.806906D+01  0.000000D+00  0.000000D+00  0.142409D+00
      7  0.000000D+00  0.000000D+00 -0.418438D+01  0.000000D+00  0.000000D+00
      8  0.000000D+00  0.000000D+00  0.000000D+00 -0.426431D+01  0.000000D+00
      9  0.322058D-02  0.902213D-01  0.000000D+00  0.000000D+00 -0.422430D+01
     10 -0.812017D+00 -0.175606D+01  0.000000D+00 -0.150260D+01  0.107702D+01
     11 -0.214706D+01 -0.329155D+01  0.000000D+00 -0.857738D+00  0.661660D+00
     12 -0.812017D+00 -0.175606D+01  0.000000D+00  0.150260D+01  0.107702D+01
     13 -0.214706D+01 -0.329155D+01  0.000000D+00  0.857738D+00  0.661660D+00
                6             7             8             9            10 
      6 -0.831656D+01
      7  0.000000D+00 -0.515731D+01
      8  0.000000D+00  0.000000D+00 -0.541476D+01
      9  0.235868D+00  0.000000D+00  0.000000D+00 -0.528590D+01
     10 -0.262611D+01  0.000000D+00 -0.259789D+01  0.185918D+01 -0.491526D+01
     11 -0.435815D+01  0.000000D+00 -0.179655D+01  0.139481D+01 -0.352873D+01
     12 -0.262611D+01  0.000000D+00  0.259789D+01  0.185918D+01 -0.229993D+00
     13 -0.435815D+01  0.000000D+00  0.179655D+01  0.139481D+01 -0.117217D+01
               11            12            13 
     11 -0.462063D+01
     12 -0.117217D+01 -0.491526D+01
     13 -0.257694D+01 -0.352873D+01 -0.462063D+01
 SVDSVc IOpt=   1 NormSV=T IR=1
 SVDSVc V= 3.14D+00 1.62D+00 1.03D+00 7.77D-01 4.59D-01 3.36D-01 1.10D-01
 SVDSVc IOpt=   1 NormSV=T IR=3
 SVDSVc V= 1.50D+00 5.01D-01
 SVDSVc IOpt=   1 NormSV=T IR=4
 SVDSVc V= 2.22D+00 8.36D-01 3.04D-01 1.76D-01
 TstOVc:  Largest diagonal error= 1.55D-15 IB=1 I=    7.
 TstOVc:  Largest same sym error= 8.53D-16 IB=1 I=    7 J=    5.
 TstOVc:  Largest diff sym error= 1.11D-16 IB=4 JB=1 I=   10 J=    7.
 Orthogonalized basis functions: 
                 1             2             3             4             5 
      1   0.599233D-01  0.162762D+00  0.782694D+00  0.628612D+00  0.106235D+00
      2   0.195271D+00  0.289051D+00  0.260322D+00 -0.614705D+00 -0.630268D+00
      3   0.000000D+00  0.000000D+00  0.000000D+00  0.000000D+00  0.000000D+00
      4   0.000000D+00  0.000000D+00  0.000000D+00  0.000000D+00  0.000000D+00
      5  -0.650155D-01  0.434509D+00 -0.390581D+00  0.523733D+00 -0.773204D+00
      6   0.271737D+00  0.248780D+00  0.793688D-02 -0.244414D+00  0.188143D+00
      7   0.000000D+00  0.000000D+00  0.000000D+00  0.000000D+00  0.000000D+00
      8   0.000000D+00  0.000000D+00  0.000000D+00  0.000000D+00  0.000000D+00
      9  -0.127850D+00  0.479820D+00 -0.145228D+00 -0.756092D-01  0.854361D+00
     10   0.179164D+00 -0.118051D+00 -0.140947D+00  0.227186D+00 -0.200196D+00
     11   0.243169D+00 -0.391426D-02 -0.191939D+00  0.188673D+00  0.403580D+00
     12   0.179164D+00 -0.118051D+00 -0.140947D+00  0.227186D+00 -0.200196D+00
     13   0.243169D+00 -0.391426D-02 -0.191939D+00  0.188673D+00  0.403580D+00
                 6             7             8             9            10 
      1   0.271010D-01 -0.535538D-01  0.000000D+00  0.000000D+00  0.000000D+00
      2  -0.344197D-01 -0.134616D+01  0.000000D+00  0.000000D+00  0.000000D+00
      3   0.000000D+00  0.000000D+00  0.577588D+00  0.998769D+00  0.000000D+00
      4   0.000000D+00  0.000000D+00  0.000000D+00  0.000000D+00  0.271995D+00
      5  -0.299640D+00  0.237858D+00  0.000000D+00  0.000000D+00  0.000000D+00
      6   0.108201D+00  0.234114D+01  0.000000D+00  0.000000D+00  0.000000D+00
      7   0.000000D+00  0.000000D+00  0.577588D+00 -0.998769D+00  0.000000D+00
      8   0.000000D+00  0.000000D+00  0.000000D+00  0.000000D+00  0.417969D+00
      9   0.672692D+00 -0.759863D+00  0.000000D+00  0.000000D+00  0.000000D+00
     10   0.925942D+00 -0.301176D+00  0.000000D+00  0.000000D+00  0.261606D+00
     11  -0.595414D+00 -0.707047D+00  0.000000D+00  0.000000D+00  0.181499D+00
     12   0.925942D+00 -0.301176D+00  0.000000D+00  0.000000D+00 -0.261606D+00
     13  -0.595414D+00 -0.707047D+00  0.000000D+00  0.000000D+00 -0.181499D+00
                11            12            13 
      1   0.000000D+00  0.000000D+00  0.000000D+00
      2   0.000000D+00  0.000000D+00  0.000000D+00
      3   0.000000D+00  0.000000D+00  0.000000D+00
      4   0.936602D+00  0.385881D+00  0.572371D+00
      5   0.000000D+00  0.000000D+00  0.000000D+00
      6   0.000000D+00  0.000000D+00  0.000000D+00
      7   0.000000D+00  0.000000D+00  0.000000D+00
      8  -0.115834D-02 -0.951280D+00 -0.138821D+01
      9   0.000000D+00  0.000000D+00  0.000000D+00
     10  -0.326726D+00  0.921080D+00 -0.961972D-01
     11  -0.229533D+00 -0.521412D+00  0.130821D+01
     12   0.326726D+00 -0.921080D+00  0.961972D-01
     13   0.229533D+00  0.521412D+00 -0.130821D+01
 NBasis=    13 RedAO= T EigKep=  1.10D-01  NBF=     7     0     2     4
 NBsUse=    13 1.00D-06 EigRej= -1.00D+00 NBFU=     7     0     2     4
 DipPsm:  J= 1 NJ= 4 MaxL=1 MMat= 4 MaxMat= 4.
 DipInt: DoE/N= T F RetVal/Mat= F T Init=T NMatP=  4 IDeriv=0 Min/MaxMlt=  0  1
 Entering OneElI...
 Multipole integrals L=0 to 1 MinM= 0 MaxM= 3.
 Requested accuracy = 0.1000D-12
 PrmmSu-InSpLW:  IPartL=    0 NPrtUS=    1 NPrtUL=    1 DoSpLW=F IThBeg=    0 IThEnd=    0 NThAct=    1.
 PrSmSu:  IncTry=   512 NBBP=             28 NTPThr=   100 NPartT=    1 Incr=           1 LDynOK=F GPUOK=F.
 PrsmSu:  NPrtUS=   1 ThrOK=F IAlg=2 LenDen=           0 ISkipM=0 DoSpLW=F IThBeg=    0 IThEnd=    0.
 Prism:   IPart=     0 DynPar=F LinDyn=F Incr=           1.
 PRISM was handed   104854435 working-precision words and    28 shell-pairs
 IPart=  0 NShTot=          28 NBatch=          14 AvBLen=         2.0
 PrSmSu:  NxtVal=              2.
 Multipole matrices IBuc=  518 IX=    1 IJ=           1:
                1             2             3             4             5 
      1  0.000000D+00
      2  0.000000D+00  0.000000D+00
      3  0.648997D-01  0.425303D+00  0.000000D+00
      4  0.000000D+00  0.000000D+00  0.000000D+00  0.000000D+00
      5  0.000000D+00  0.000000D+00  0.000000D+00  0.000000D+00  0.000000D+00
      6  0.000000D+00  0.000000D+00  0.407958D+00  0.000000D+00  0.000000D+00
      7  0.918247D-02  0.258577D+00  0.000000D+00  0.000000D+00  0.000000D+00
      8  0.000000D+00  0.000000D+00  0.000000D+00  0.000000D+00  0.000000D+00
      9  0.000000D+00  0.000000D+00  0.000000D+00  0.000000D+00  0.000000D+00
     10  0.000000D+00  0.000000D+00  0.662445D-01  0.000000D+00  0.000000D+00
     11  0.000000D+00  0.000000D+00  0.177795D+00  0.000000D+00  0.000000D+00
     12  0.000000D+00  0.000000D+00  0.662445D-01  0.000000D+00  0.000000D+00
     13  0.000000D+00  0.000000D+00  0.177795D+00  0.000000D+00  0.000000D+00
                6             7             8             9            10 
      6  0.000000D+00
      7  0.817933D+00  0.000000D+00
      8  0.000000D+00  0.000000D+00  0.000000D+00
      9  0.000000D+00  0.000000D+00  0.000000D+00  0.000000D+00
     10  0.000000D+00  0.178364D+00  0.000000D+00  0.000000D+00  0.000000D+00
     11  0.000000D+00  0.667202D+00  0.000000D+00  0.000000D+00  0.000000D+00
     12  0.000000D+00  0.178364D+00  0.000000D+00  0.000000D+00  0.000000D+00
     13  0.000000D+00  0.667202D+00  0.000000D+00  0.000000D+00  0.000000D+00
               11            12            13 
     11  0.000000D+00
     12  0.000000D+00  0.000000D+00
     13  0.000000D+00  0.000000D+00  0.000000D+00
 Multipole matrices IBuc=  518 IX=    2 IJ=           1:
                1             2             3             4             5 
      1  0.000000D+00
      2  0.000000D+00  0.000000D+00
      3  0.000000D+00  0.000000D+00  0.000000D+00
      4  0.648997D-01  0.425303D+00  0.000000D+00  0.000000D+00
      5  0.000000D+00  0.000000D+00  0.000000D+00  0.000000D+00  0.000000D+00
      6  0.000000D+00  0.000000D+00  0.000000D+00  0.407958D+00  0.000000D+00
      7  0.000000D+00  0.000000D+00  0.000000D+00  0.000000D+00  0.000000D+00
      8  0.918247D-02  0.258577D+00  0.000000D+00  0.000000D+00  0.000000D+00
      9  0.000000D+00  0.000000D+00  0.000000D+00  0.000000D+00  0.000000D+00
     10  0.218953D-02  0.884146D-01  0.000000D+00  0.151618D+00 -0.603363D-01
     11  0.137877D-02  0.510506D-01  0.000000D+00  0.192149D+00 -0.101444D-01
     12 -0.218953D-02 -0.884146D-01  0.000000D+00  0.151618D+00  0.603363D-01
     13 -0.137877D-02 -0.510506D-01  0.000000D+00  0.192149D+00  0.101444D-01
                6             7             8             9            10 
      6  0.000000D+00
      7  0.000000D+00  0.000000D+00
      8  0.817933D+00  0.000000D+00  0.000000D+00
      9  0.000000D+00  0.000000D+00  0.000000D+00  0.000000D+00
     10  0.376394D+00  0.000000D+00  0.658056D+00 -0.339013D+00  0.148150D+01
     11  0.296219D+00  0.000000D+00  0.843702D+00 -0.124738D+00  0.956898D+00
     12 -0.376394D+00  0.000000D+00  0.658056D+00  0.339013D+00  0.000000D+00
     13 -0.296219D+00  0.000000D+00  0.843702D+00  0.124738D+00  0.164646D+00
               11            12            13 
     11  0.148150D+01
     12 -0.164646D+00 -0.148150D+01
     13  0.000000D+00 -0.956898D+00 -0.148150D+01
 Multipole matrices IBuc=  518 IX=    3 IJ=           1:
                1             2             3             4             5 
      1  0.209404D+00
      2  0.438104D-01  0.209404D+00
      3  0.000000D+00  0.000000D+00  0.209404D+00
      4  0.000000D+00  0.000000D+00  0.000000D+00  0.209404D+00
      5  0.648997D-01  0.425303D+00  0.000000D+00  0.000000D+00  0.209404D+00
      6  0.383393D-01  0.154962D+00  0.000000D+00  0.000000D+00  0.407958D+00
      7  0.000000D+00  0.000000D+00  0.104444D+00  0.000000D+00  0.000000D+00
      8  0.000000D+00  0.000000D+00  0.000000D+00  0.104444D+00  0.000000D+00
      9  0.918247D-02  0.258577D+00  0.000000D+00  0.000000D+00  0.104444D+00
     10  0.315924D-02 -0.289825D-01  0.000000D+00 -0.255114D-01  0.842742D-01
     11  0.117285D-01  0.270778D-01  0.000000D+00  0.100645D-01  0.170682D+00
     12  0.315924D-02 -0.289825D-01  0.000000D+00  0.255114D-01  0.842742D-01
     13  0.117285D-01  0.270778D-01  0.000000D+00 -0.100645D-01  0.170682D+00
                6             7             8             9            10 
      6  0.209404D+00
      7  0.000000D+00  0.209404D+00
      8  0.000000D+00  0.000000D+00  0.209404D+00
      9  0.817933D+00  0.000000D+00  0.000000D+00  0.209404D+00
     10 -0.189975D+00  0.000000D+00 -0.242650D+00  0.349852D+00 -0.837616D+00
     11 -0.820700D-01  0.000000D+00 -0.489008D-01  0.701762D+00 -0.541015D+00
     12 -0.189975D+00  0.000000D+00  0.242650D+00  0.349852D+00 -0.186150D-01
     13 -0.820700D-01  0.000000D+00  0.489008D-01  0.701762D+00 -0.143528D+00
               11            12            13 
     11 -0.837616D+00
     12 -0.143528D+00 -0.837616D+00
     13 -0.374806D+00 -0.541015D+00 -0.837616D+00
 Fermi contact integrals: 
                 1             2             3 
      1   0.107339D+02  0.000000D+00  0.000000D+00
      2  -0.689830D-01  0.684172D-02  0.684172D-02
      3   0.000000D+00  0.000000D+00  0.000000D+00
      4   0.000000D+00  0.177919D-01 -0.177919D-01
      5   0.000000D+00 -0.125741D-01 -0.125741D-01
      6   0.340634D+00  0.995819D-01  0.995819D-01
      7   0.000000D+00  0.000000D+00  0.000000D+00
      8   0.000000D+00  0.180370D+00 -0.180370D+00
      9   0.000000D+00 -0.127473D+00 -0.127473D+00
     10   0.369865D-01  0.955071D+00  0.400602D-03
     11   0.109208D+00  0.199567D+00  0.399586D-01
     12   0.369865D-01  0.400602D-03  0.955071D+00
     13   0.109208D+00  0.399586D-01  0.199567D+00
 Dipole velocity integrals will be written to rwf   572.
 Entering OneElI...
 Calculate R x Del and Del integrals.
    NBasis =    13  MinDer = 0  MaxDer = 0
 Requested accuracy = 0.1000D-12
 PrmmSu-InSpLW:  IPartL=    0 NPrtUS=    1 NPrtUL=    1 DoSpLW=F IThBeg=    0 IThEnd=    0 NThAct=    1.
 PrSmSu:  IncTry=   512 NBBP=             28 NTPThr=   100 NPartT=    1 Incr=           1 LDynOK=F GPUOK=F.
 PrsmSu:  NPrtUS=   1 ThrOK=F IAlg=2 LenDen=           0 ISkipM=0 DoSpLW=F IThBeg=    0 IThEnd=    0.
 Prism:   IPart=     0 DynPar=F LinDyn=F Incr=           1.
 PRISM was handed   104853539 working-precision words and    28 shell-pairs
 IPart=  0 NShTot=          28 NBatch=          14 AvBLen=         2.0
 PrSmSu:  NxtVal=              2.
 Dipole Velocity for IMat=    1:
                1             2             3             4             5 
      1  0.000000D+00
      2  0.000000D+00  0.000000D+00
      3 -0.166722D+01 -0.755381D+00  0.000000D+00
      4  0.000000D+00  0.000000D+00  0.000000D+00  0.000000D+00
      5  0.000000D+00  0.000000D+00  0.000000D+00  0.000000D+00  0.000000D+00
      6  0.000000D+00  0.000000D+00  0.304895D+00  0.000000D+00  0.000000D+00
      7 -0.216979D+00 -0.711487D+00  0.000000D+00  0.000000D+00  0.000000D+00
      8  0.000000D+00  0.000000D+00  0.000000D+00  0.000000D+00  0.000000D+00
      9  0.000000D+00  0.000000D+00  0.000000D+00  0.000000D+00  0.000000D+00
     10  0.000000D+00  0.000000D+00  0.112254D+00  0.000000D+00  0.000000D+00
     11  0.000000D+00  0.000000D+00  0.651412D-01  0.000000D+00  0.000000D+00
     12  0.000000D+00  0.000000D+00  0.112254D+00  0.000000D+00  0.000000D+00
     13  0.000000D+00  0.000000D+00  0.651412D-01  0.000000D+00  0.000000D+00
                6             7             8             9            10 
      6  0.000000D+00
      7 -0.611297D+00  0.000000D+00
      8  0.000000D+00  0.000000D+00  0.000000D+00
      9  0.000000D+00  0.000000D+00  0.000000D+00  0.000000D+00
     10  0.000000D+00  0.310615D+00  0.000000D+00  0.000000D+00  0.000000D+00
     11  0.000000D+00  0.244452D+00  0.000000D+00  0.000000D+00  0.000000D+00
     12  0.000000D+00  0.310615D+00  0.000000D+00  0.000000D+00  0.000000D+00
     13  0.000000D+00  0.244452D+00  0.000000D+00  0.000000D+00  0.000000D+00
               11            12            13 
     11  0.000000D+00
     12  0.000000D+00  0.000000D+00
     13  0.000000D+00  0.000000D+00  0.000000D+00
 Dipole Velocity for IMat=    2:
                1             2             3             4             5 
      1  0.000000D+00
      2  0.000000D+00  0.000000D+00
      3  0.000000D+00  0.000000D+00  0.000000D+00
      4 -0.166722D+01 -0.755381D+00  0.000000D+00  0.000000D+00
      5  0.000000D+00  0.000000D+00  0.000000D+00  0.000000D+00  0.000000D+00
      6  0.000000D+00  0.000000D+00  0.000000D+00  0.304895D+00  0.000000D+00
      7  0.000000D+00  0.000000D+00  0.000000D+00  0.000000D+00  0.000000D+00
      8 -0.216979D+00 -0.711487D+00  0.000000D+00  0.000000D+00  0.000000D+00
      9  0.000000D+00  0.000000D+00  0.000000D+00  0.000000D+00  0.000000D+00
     10 -0.513093D-01 -0.253064D+00  0.000000D+00 -0.169437D+00  0.199079D+00
     11 -0.324222D-01 -0.145005D+00  0.000000D+00  0.180168D-01  0.333043D-01
     12  0.513093D-01  0.253064D+00  0.000000D+00 -0.169437D+00 -0.199079D+00
     13  0.324222D-01  0.145005D+00  0.000000D+00  0.180168D-01 -0.333043D-01
                6             7             8             9            10 
      6  0.000000D+00
      7  0.000000D+00  0.000000D+00
      8 -0.611297D+00  0.000000D+00  0.000000D+00
      9  0.000000D+00  0.000000D+00  0.000000D+00  0.000000D+00
     10 -0.281305D+00  0.000000D+00 -0.478912D-01  0.253367D+00  0.000000D+00
     11 -0.221384D+00  0.000000D+00  0.112542D+00  0.932248D-01  0.000000D+00
     12  0.281305D+00  0.000000D+00 -0.478912D-01 -0.253367D+00  0.548219D-01
     13  0.221384D+00  0.000000D+00  0.112542D+00 -0.932248D-01  0.153334D+00
               11            12            13 
     11  0.000000D+00
     12  0.153334D+00  0.000000D+00
     13  0.242883D+00  0.000000D+00  0.000000D+00
 Dipole Velocity for IMat=    3:
                1             2             3             4             5 
      1  0.000000D+00
      2  0.000000D+00  0.000000D+00
      3  0.000000D+00  0.000000D+00  0.000000D+00
      4  0.000000D+00  0.000000D+00  0.000000D+00  0.000000D+00
      5 -0.166722D+01 -0.755381D+00  0.000000D+00  0.000000D+00  0.000000D+00
      6  0.000000D+00  0.000000D+00  0.000000D+00  0.000000D+00  0.304895D+00
      7  0.000000D+00  0.000000D+00  0.000000D+00  0.000000D+00  0.000000D+00
      8  0.000000D+00  0.000000D+00  0.000000D+00  0.000000D+00  0.000000D+00
      9 -0.216979D+00 -0.711487D+00  0.000000D+00  0.000000D+00  0.000000D+00
     10  0.362618D-01  0.178848D+00  0.000000D+00  0.199079D+00 -0.284412D-01
     11  0.229137D-01  0.102479D+00  0.000000D+00  0.333043D-01  0.416041D-01
     12  0.362618D-01  0.178848D+00  0.000000D+00 -0.199079D+00 -0.284412D-01
     13  0.229137D-01  0.102479D+00  0.000000D+00 -0.333043D-01  0.416041D-01
                6             7             8             9            10 
      6  0.000000D+00
      7  0.000000D+00  0.000000D+00
      8  0.000000D+00  0.000000D+00  0.000000D+00
      9 -0.611297D+00  0.000000D+00  0.000000D+00  0.000000D+00
     10  0.198806D+00  0.000000D+00  0.253367D+00  0.131553D+00  0.000000D+00
     11  0.156459D+00  0.000000D+00  0.932248D-01  0.178567D+00  0.000000D+00
     12  0.198806D+00  0.000000D+00 -0.253367D+00  0.131553D+00  0.000000D+00
     13  0.156459D+00  0.000000D+00 -0.932248D-01  0.178567D+00  0.000000D+00
               11            12            13 
     11  0.000000D+00
     12  0.000000D+00  0.000000D+00
     13  0.000000D+00  0.000000D+00  0.000000D+00
 R x Del for IMat=    1:
                1             2             3             4             5 
      1  0.000000D+00
      2  0.000000D+00  0.000000D+00
      3  0.000000D+00  0.000000D+00  0.000000D+00
      4  0.349122D+00  0.158180D+00  0.000000D+00  0.000000D+00
      5  0.000000D+00  0.000000D+00  0.000000D+00 -0.100000D+01  0.000000D+00
      6  0.000000D+00  0.000000D+00  0.000000D+00 -0.638462D-01  0.000000D+00
      7  0.000000D+00  0.000000D+00  0.000000D+00  0.000000D+00  0.000000D+00
      8  0.454363D-01  0.148988D+00  0.000000D+00  0.000000D+00  0.498767D+00
      9  0.000000D+00  0.000000D+00  0.000000D+00 -0.498767D+00  0.000000D+00
     10  0.107444D-01  0.529926D-01  0.000000D+00  0.153013D+00  0.124616D+00
     11  0.678934D-02  0.303646D-01  0.000000D+00  0.644314D-01  0.895327D-01
     12 -0.107444D-01 -0.529926D-01  0.000000D+00  0.153013D+00 -0.124616D+00
     13 -0.678934D-02 -0.303646D-01  0.000000D+00  0.644314D-01 -0.895327D-01
                6             7             8             9            10 
      6  0.000000D+00
      7  0.000000D+00  0.000000D+00
      8  0.128008D+00  0.000000D+00  0.000000D+00
      9  0.000000D+00  0.000000D+00 -0.100000D+01  0.000000D+00
     10  0.589063D-01  0.000000D+00  0.335249D+00  0.407120D+00  0.000000D+00
     11  0.463588D-01  0.000000D+00  0.232379D+00  0.342633D+00  0.000000D+00
     12 -0.589063D-01  0.000000D+00  0.335249D+00 -0.407120D+00  0.459197D-01
     13 -0.463588D-01  0.000000D+00  0.232379D+00 -0.342633D+00  0.128435D+00
               11            12            13 
     11  0.000000D+00
     12  0.128435D+00  0.000000D+00
     13  0.203443D+00  0.000000D+00  0.000000D+00
 R x Del for IMat=    2:
                1             2             3             4             5 
      1  0.000000D+00
      2  0.000000D+00  0.000000D+00
      3 -0.349122D+00 -0.158180D+00  0.000000D+00
      4  0.000000D+00  0.000000D+00  0.000000D+00  0.000000D+00
      5  0.000000D+00  0.000000D+00  0.100000D+01  0.000000D+00  0.000000D+00
      6  0.000000D+00  0.000000D+00  0.638462D-01  0.000000D+00  0.000000D+00
      7 -0.454363D-01 -0.148988D+00  0.000000D+00  0.000000D+00 -0.498767D+00
      8  0.000000D+00  0.000000D+00  0.000000D+00  0.000000D+00  0.000000D+00
      9  0.000000D+00  0.000000D+00  0.498767D+00  0.000000D+00  0.000000D+00
     10  0.000000D+00  0.000000D+00 -0.940259D-01  0.000000D+00  0.000000D+00
     11  0.000000D+00  0.000000D+00 -0.545634D-01  0.000000D+00  0.000000D+00
     12  0.000000D+00  0.000000D+00 -0.940259D-01  0.000000D+00  0.000000D+00
     13  0.000000D+00  0.000000D+00 -0.545634D-01  0.000000D+00  0.000000D+00
                6             7             8             9            10 
      6  0.000000D+00
      7 -0.128008D+00  0.000000D+00
      8  0.000000D+00  0.000000D+00  0.000000D+00
      9  0.000000D+00  0.100000D+01  0.000000D+00  0.000000D+00
     10  0.000000D+00 -0.260176D+00  0.000000D+00  0.000000D+00  0.000000D+00
     11  0.000000D+00 -0.204757D+00  0.000000D+00  0.000000D+00  0.000000D+00
     12  0.000000D+00 -0.260176D+00  0.000000D+00  0.000000D+00  0.000000D+00
     13  0.000000D+00 -0.204757D+00  0.000000D+00  0.000000D+00  0.000000D+00
               11            12            13 
     11  0.000000D+00
     12  0.000000D+00  0.000000D+00
     13  0.000000D+00  0.000000D+00  0.000000D+00
 R x Del for IMat=    3:
                1             2             3             4             5 
      1  0.000000D+00
      2  0.000000D+00  0.000000D+00
      3  0.000000D+00  0.000000D+00  0.000000D+00
      4  0.000000D+00  0.000000D+00 -0.100000D+01  0.000000D+00
      5  0.000000D+00  0.000000D+00  0.000000D+00  0.000000D+00  0.000000D+00
      6  0.000000D+00  0.000000D+00  0.000000D+00  0.000000D+00  0.000000D+00
      7  0.000000D+00  0.000000D+00  0.000000D+00  0.498767D+00  0.000000D+00
      8  0.000000D+00  0.000000D+00 -0.498767D+00  0.000000D+00  0.000000D+00
      9  0.000000D+00  0.000000D+00  0.000000D+00  0.000000D+00  0.000000D+00
     10  0.000000D+00  0.000000D+00 -0.166304D+00  0.000000D+00  0.000000D+00
     11  0.000000D+00  0.000000D+00 -0.965067D-01  0.000000D+00  0.000000D+00
     12  0.000000D+00  0.000000D+00  0.166304D+00  0.000000D+00  0.000000D+00
     13  0.000000D+00  0.000000D+00  0.965067D-01  0.000000D+00  0.000000D+00
                6             7             8             9            10 
      6  0.000000D+00
      7  0.000000D+00  0.000000D+00
      8  0.000000D+00 -0.100000D+01  0.000000D+00
      9  0.000000D+00  0.000000D+00  0.000000D+00  0.000000D+00
     10  0.000000D+00 -0.460177D+00  0.000000D+00  0.000000D+00  0.000000D+00
     11  0.000000D+00 -0.362155D+00  0.000000D+00  0.000000D+00  0.000000D+00
     12  0.000000D+00  0.460177D+00  0.000000D+00  0.000000D+00  0.000000D+00
     13  0.000000D+00  0.362155D+00  0.000000D+00  0.000000D+00  0.000000D+00
               11            12            13 
     11  0.000000D+00
     12  0.000000D+00  0.000000D+00
     13  0.000000D+00  0.000000D+00  0.000000D+00
< mu | del r + r del | nu > integrals: XX
                1             2             3             4             5 
      1  0.000000D+00
      2 -0.331295D+00  0.000000D+00
      3  0.000000D+00  0.000000D+00  0.000000D+00
      4  0.000000D+00  0.000000D+00  0.000000D+00  0.000000D+00
      5  0.000000D+00  0.000000D+00  0.000000D+00  0.000000D+00  0.000000D+00
      6 -0.171861D+00 -0.423881D+00  0.000000D+00  0.000000D+00  0.000000D+00
      7  0.000000D+00  0.000000D+00 -0.948003D+00  0.000000D+00  0.000000D+00
      8  0.000000D+00  0.000000D+00  0.000000D+00 -0.316001D+00  0.000000D+00
      9  0.000000D+00  0.000000D+00  0.000000D+00  0.000000D+00 -0.316001D+00
     10 -0.195206D-01 -0.406329D-01  0.000000D+00 -0.510512D-01  0.360794D-01
     11 -0.588011D-01 -0.232685D+00  0.000000D+00 -0.771292D-01  0.545095D-01
     12 -0.195206D-01 -0.406329D-01  0.000000D+00  0.510512D-01  0.360794D-01
     13 -0.588011D-01 -0.232685D+00  0.000000D+00  0.771292D-01  0.545095D-01
                6             7             8             9            10 
      6  0.000000D+00
      7  0.000000D+00  0.000000D+00
      8  0.000000D+00  0.000000D+00  0.000000D+00
      9  0.000000D+00  0.000000D+00  0.000000D+00  0.000000D+00
     10  0.145029D+00  0.000000D+00  0.187400D+00 -0.132441D+00  0.000000D+00
     11 -0.207914D+00  0.000000D+00 -0.123884D+00  0.875523D-01 -0.420930D+00
     12  0.145029D+00  0.000000D+00 -0.187400D+00 -0.132441D+00  0.000000D+00
     13 -0.207914D+00  0.000000D+00  0.123884D+00  0.875523D-01 -0.111135D+00
               11            12            13 
     11  0.000000D+00
     12  0.111135D+00  0.000000D+00
     13  0.000000D+00 -0.420930D+00  0.000000D+00
< mu | del r + r del | nu > integrals: YY
                1             2             3             4             5 
      1  0.000000D+00
      2 -0.331295D+00  0.000000D+00
      3  0.000000D+00  0.000000D+00  0.000000D+00
      4  0.000000D+00  0.000000D+00  0.000000D+00  0.000000D+00
      5  0.000000D+00  0.000000D+00  0.000000D+00  0.000000D+00  0.000000D+00
      6 -0.171861D+00 -0.423881D+00  0.000000D+00  0.000000D+00  0.000000D+00
      7  0.000000D+00  0.000000D+00 -0.316001D+00  0.000000D+00  0.000000D+00
      8  0.000000D+00  0.000000D+00  0.000000D+00 -0.948003D+00  0.000000D+00
      9  0.000000D+00  0.000000D+00  0.000000D+00  0.000000D+00 -0.316001D+00
     10 -0.294613D-01 -0.333714D+00  0.000000D+00 -0.452712D+00  0.247786D+00
     11 -0.602727D-01 -0.282216D+00  0.000000D+00 -0.245361D+00  0.643854D-01
     12 -0.294613D-01 -0.333714D+00  0.000000D+00  0.452712D+00  0.247786D+00
     13 -0.602727D-01 -0.282216D+00  0.000000D+00  0.245361D+00  0.643854D-01
                6             7             8             9            10 
      6  0.000000D+00
      7  0.000000D+00  0.000000D+00
      8  0.000000D+00  0.000000D+00  0.000000D+00
      9  0.000000D+00  0.000000D+00  0.000000D+00  0.000000D+00
     10 -0.441440D+00  0.000000D+00 -0.190648D+00  0.399619D+00  0.000000D+00
     11 -0.423701D+00  0.000000D+00 -0.500226D+00  0.178420D+00 -0.420930D+00
     12 -0.441440D+00  0.000000D+00  0.190648D+00  0.399619D+00  0.000000D+00
     13 -0.423701D+00  0.000000D+00  0.500226D+00  0.178420D+00  0.184487D+00
               11            12            13 
     11  0.000000D+00
     12 -0.184487D+00  0.000000D+00
     13  0.000000D+00 -0.420930D+00  0.000000D+00
< mu | del r + r del | nu > integrals: ZZ
                1             2             3             4             5 
      1  0.000000D+00
      2 -0.331295D+00  0.000000D+00
      3  0.000000D+00  0.000000D+00  0.000000D+00
      4  0.000000D+00  0.000000D+00  0.000000D+00  0.000000D+00
      5 -0.698244D+00 -0.316360D+00  0.000000D+00  0.000000D+00  0.000000D+00
      6 -0.171861D+00 -0.423881D+00  0.000000D+00  0.000000D+00  0.127692D+00
      7  0.000000D+00  0.000000D+00 -0.316001D+00  0.000000D+00  0.000000D+00
      8  0.000000D+00  0.000000D+00  0.000000D+00 -0.316001D+00  0.000000D+00
      9 -0.908726D-01 -0.297977D+00  0.000000D+00  0.000000D+00 -0.948003D+00
     10 -0.929889D-02 -0.112114D+00  0.000000D+00 -0.117295D+00  0.202068D+00
     11 -0.499397D-01 -0.214505D+00  0.000000D+00 -0.701606D-01  0.185885D+00
     12 -0.929889D-02 -0.112114D+00  0.000000D+00  0.117295D+00  0.202068D+00
     13 -0.499397D-01 -0.214505D+00  0.000000D+00  0.701606D-01  0.185885D+00
                6             7             8             9            10 
      6  0.000000D+00
      7  0.000000D+00  0.000000D+00
      8  0.000000D+00  0.000000D+00  0.000000D+00
      9 -0.256016D+00  0.000000D+00  0.000000D+00  0.000000D+00
     10 -0.646312D-01  0.000000D+00 -0.825105D-01 -0.764812D-01  0.000000D+00
     11 -0.250166D+00  0.000000D+00 -0.149059D+00  0.382828D+00 -0.420930D+00
     12 -0.646312D-01  0.000000D+00  0.825105D-01 -0.764812D-01  0.000000D+00
     13 -0.250166D+00  0.000000D+00  0.149059D+00  0.382828D+00 -0.111135D+00
               11            12            13 
     11  0.000000D+00
     12  0.111135D+00  0.000000D+00
     13  0.000000D+00 -0.420930D+00  0.000000D+00
< mu | del r + r del | nu > integrals: XY
                1             2             3             4             5 
      1  0.000000D+00
      2  0.000000D+00  0.000000D+00
      3  0.000000D+00  0.000000D+00  0.000000D+00
      4  0.000000D+00  0.000000D+00  0.000000D+00  0.000000D+00
      5  0.000000D+00  0.000000D+00  0.000000D+00  0.000000D+00  0.000000D+00
      6  0.000000D+00  0.000000D+00  0.000000D+00  0.000000D+00  0.000000D+00
      7  0.000000D+00  0.000000D+00  0.000000D+00 -0.316001D+00  0.000000D+00
      8  0.000000D+00  0.000000D+00 -0.316001D+00  0.000000D+00  0.000000D+00
      9  0.000000D+00  0.000000D+00  0.000000D+00  0.000000D+00  0.000000D+00
     10  0.000000D+00  0.000000D+00 -0.510512D-01  0.000000D+00  0.000000D+00
     11  0.000000D+00  0.000000D+00 -0.771292D-01  0.000000D+00  0.000000D+00
     12  0.000000D+00  0.000000D+00  0.510512D-01  0.000000D+00  0.000000D+00
     13  0.000000D+00  0.000000D+00  0.771292D-01  0.000000D+00  0.000000D+00
                6             7             8             9            10 
      6  0.000000D+00
      7  0.000000D+00  0.000000D+00
      8  0.000000D+00  0.000000D+00  0.000000D+00
      9  0.000000D+00  0.000000D+00  0.000000D+00  0.000000D+00
     10  0.000000D+00  0.187400D+00  0.000000D+00  0.000000D+00  0.000000D+00
     11  0.000000D+00 -0.123884D+00  0.000000D+00  0.000000D+00  0.000000D+00
     12  0.000000D+00 -0.187400D+00  0.000000D+00  0.000000D+00  0.000000D+00
     13  0.000000D+00  0.123884D+00  0.000000D+00  0.000000D+00  0.000000D+00
               11            12            13 
     11  0.000000D+00
     12  0.000000D+00  0.000000D+00
     13  0.000000D+00  0.000000D+00  0.000000D+00
< mu | del r + r del | nu > integrals: XZ
                1             2             3             4             5 
      1  0.000000D+00
      2  0.000000D+00  0.000000D+00
      3 -0.349122D+00 -0.158180D+00  0.000000D+00
      4  0.000000D+00  0.000000D+00  0.000000D+00  0.000000D+00
      5  0.000000D+00  0.000000D+00  0.000000D+00  0.000000D+00  0.000000D+00
      6  0.000000D+00  0.000000D+00  0.638462D-01  0.000000D+00  0.000000D+00
      7 -0.454363D-01 -0.148988D+00  0.000000D+00  0.000000D+00 -0.316001D+00
      8  0.000000D+00  0.000000D+00  0.000000D+00  0.000000D+00  0.000000D+00
      9  0.000000D+00  0.000000D+00 -0.316001D+00  0.000000D+00  0.000000D+00
     10  0.000000D+00  0.000000D+00  0.595859D-01  0.000000D+00  0.000000D+00
     11  0.000000D+00  0.000000D+00  0.681503D-01  0.000000D+00  0.000000D+00
     12  0.000000D+00  0.000000D+00  0.595859D-01  0.000000D+00  0.000000D+00
     13  0.000000D+00  0.000000D+00  0.681503D-01  0.000000D+00  0.000000D+00
                6             7             8             9            10 
      6  0.000000D+00
      7 -0.128008D+00  0.000000D+00
      8  0.000000D+00  0.000000D+00  0.000000D+00
      9  0.000000D+00  0.000000D+00  0.000000D+00  0.000000D+00
     10  0.000000D+00 -0.673969D-01  0.000000D+00  0.000000D+00  0.000000D+00
     11  0.000000D+00  0.138742D+00  0.000000D+00  0.000000D+00  0.000000D+00
     12  0.000000D+00 -0.673969D-01  0.000000D+00  0.000000D+00  0.000000D+00
     13  0.000000D+00  0.138742D+00  0.000000D+00  0.000000D+00  0.000000D+00
               11            12            13 
     11  0.000000D+00
     12  0.000000D+00  0.000000D+00
     13  0.000000D+00  0.000000D+00  0.000000D+00
< mu | del r + r del | nu > integrals: YZ
                1             2             3             4             5 
      1  0.000000D+00
      2  0.000000D+00  0.000000D+00
      3  0.000000D+00  0.000000D+00  0.000000D+00
      4 -0.349122D+00 -0.158180D+00  0.000000D+00  0.000000D+00
      5  0.000000D+00  0.000000D+00  0.000000D+00  0.000000D+00  0.000000D+00
      6  0.000000D+00  0.000000D+00  0.000000D+00  0.638462D-01  0.000000D+00
      7  0.000000D+00  0.000000D+00  0.000000D+00  0.000000D+00  0.000000D+00
      8 -0.454363D-01 -0.148988D+00  0.000000D+00  0.000000D+00 -0.316001D+00
      9  0.000000D+00  0.000000D+00  0.000000D+00 -0.316001D+00  0.000000D+00
     10 -0.371899D-02  0.154136D+00  0.000000D+00  0.212306D+00 -0.158983D+00
     11 -0.574931D-02  0.464055D-02  0.000000D+00  0.681581D-01 -0.771347D-01
     12  0.371899D-02 -0.154136D+00  0.000000D+00  0.212306D+00  0.158983D+00
     13  0.574931D-02 -0.464055D-02  0.000000D+00  0.681581D-01  0.771347D-01
                6             7             8             9            10 
      6  0.000000D+00
      7  0.000000D+00  0.000000D+00
      8 -0.128008D+00  0.000000D+00  0.000000D+00
      9  0.000000D+00  0.000000D+00  0.000000D+00  0.000000D+00
     10  0.355569D+00  0.000000D+00  0.389590D+00 -0.135567D+00  0.000000D+00
     11  0.106145D+00  0.000000D+00  0.201987D+00 -0.168581D+00  0.000000D+00
     12 -0.355569D+00  0.000000D+00  0.389590D+00  0.135567D+00 -0.459197D-01
     13 -0.106145D+00  0.000000D+00  0.201987D+00  0.168581D+00 -0.128435D+00
               11            12            13 
     11  0.000000D+00
     12 -0.128435D+00  0.000000D+00
     13 -0.203443D+00  0.000000D+00  0.000000D+00
 ExpMin= 1.83D-01 ExpMax= 3.22D+02 ExpMxC= 3.22D+02 IAcc=3 IRadAn=         5 AccDes= 0.00D+00
 Harris functional with IExCor=  205 and IRadAn=       5 diagonalized for initial guess.
 HarFok:  IExCor=  205 AccDes= 0.00D+00 IRadAn=         5 IDoV= 1 UseB2=F ITyADJ=14
 ICtDFT=  3500011 ScaDFX=  1.000000  1.000000  1.000000  1.000000
 FoFCou: FMM=F IPFlag=           0 FMFlag=      100000 FMFlg1=           0
         NFxFlg=           0 DoJE=T BraDBF=F KetDBF=T FulRan=T
         wScrn=  0.000000 ICntrl=       500 IOpCl=  0 I1Cent=   200000004 NGrid=           0
         NMat0=    1 NMatS0=      1 NMatT0=    0 NMatD0=    1 NMtDS0=    0 NMtDT0=    0
 Petite list used in FoFCou.
 Initial guess orbital symmetries:
       Occupied  (A1) (A1) (B2) (A1) (B1)
       Virtual   (A1) (B2) (B2) (A1) (B1) (A1) (B2) (A1)
 The electronic state of the initial guess is 1-A1.
 Keep R1 ints in memory in symmetry-blocked form, NReq=807464.
 Requested convergence on RMS density matrix=1.00D-08 within 128 cycles.
 Requested convergence on MAX density matrix=1.00D-06.
 Requested convergence on             energy=1.00D-06.
 No special actions if energy rises.
 SCF Done:  E(RHF) =  -75.5858099786     A.U. after   10 cycles
            NFock= 10  Conv=0.41D-09     -V/T= 2.0018
 ExpMin= 1.83D-01 ExpMax= 3.22D+02 ExpMxC= 3.22D+02 IAcc=3 IRadAn=         5 AccDes= 0.00D+00
 HarFok:  IExCor=  205 AccDes= 0.00D+00 IRadAn=         5 IDoV=-2 UseB2=F ITyADJ=14
 ICtDFT= 12500011 ScaDFX=  1.000000  1.000000  1.000000  1.000000
 Range of M.O.s used for correlation:     2    13
 NBasis=    13 NAE=     5 NBE=     5 NFC=     1 NFV=     0
 NROrb=     12 NOA=     4 NOB=     4 NVA=     8 NVB=     8
 Keep R1, R2, and R3 ints in memory in symmetry-blocked form, NReq=807842.
 Orbital symmetries:
       Occupied  (A1) (A1) (B2) (A1) (B1)
       Virtual   (A1) (B2) (B2) (A1) (B1) (A1) (B2) (A1)
    32 initial guesses have been made.
 Convergence on wavefunction:    0.001000000000000
 *** WARNING: Number of orthogonal guesses is           32
 Iteration     1 Dimension    32 NMult     0 NNew     32
 CISAX will form    32 AO SS matrices at one time.
 New state      2 was old state      3
 New state      3 was old state      2
 ***********************************************************************
 Excited states from <AA,BB:AA,BB> singles matrix:
 ***********************************************************************
 
 Ground to excited state transition densities written to RWF  633
 Ground to excited state transition electric dipole moments (Au):
       state          X           Y           Z        Dip. S.      Osc.
         1         0.1614      0.0000      0.0000      0.0261      0.0061
         2         0.0000     -0.0000      0.0000      0.0000      0.0000
         3         0.0000     -0.0000      0.5353      0.2866      0.0829
         4        -0.0000      0.5585      0.0000      0.3119      0.1063
         5         0.0000      1.1333      0.0000      1.2843      0.5087
         6         0.0000     -0.0000      0.7192      0.5172      0.2577
         7         0.0000     -0.0000     -0.1055      0.0111      0.0091
         8        -0.0000     -0.0000      0.0000      0.0000      0.0000
         9        -0.0000     -0.2230     -0.0000      0.0497      0.0430
        10         0.4724     -0.0000     -0.0000      0.2232      0.1942
 Ground to excited state transition velocity dipole moments (Au):
       state          X           Y           Z        Dip. S.      Osc.
         1        -0.1965      0.0000     -0.0000      0.0386      0.0735
         2        -0.0000      0.0000     -0.0000      0.0000      0.0000
         3        -0.0000      0.0000     -0.3515      0.1236      0.1898
         4         0.0000     -0.2946     -0.0000      0.0868      0.1132
         5         0.0000     -0.6355     -0.0000      0.4039      0.4532
         6        -0.0000     -0.0000     -0.4771      0.2277      0.2031
         7        -0.0000     -0.0000      0.1728      0.0299      0.0162
         8         0.0000      0.0000     -0.0000      0.0000      0.0000
         9         0.0000      0.2792      0.0000      0.0780      0.0401
        10        -0.3599      0.0000      0.0000      0.1295      0.0662
 Ground to excited state transition magnetic dipole moments (Au):
       state          X           Y           Z
         1         0.0000      0.2630      0.0000
         2        -0.0000      0.0000     -0.4242
         3         0.0000      0.0000      0.0000
         4         0.4770      0.0000     -0.0000
         5        -0.0779      0.0000     -0.0000
         6         0.0000     -0.0000     -0.0000
         7         0.0000     -0.0000      0.0000
         8         0.0000      0.0000     -0.2646
         9        -0.2152      0.0000     -0.0000
        10        -0.0000     -0.2496     -0.0000
 Ground to excited state transition velocity quadrupole moments (Au):
       state          XX          YY          ZZ          XY          XZ          YZ
         1        -0.0000      0.0000     -0.0000     -0.0000      0.1046     -0.0000
         2         0.0000      0.0000      0.0000      0.2566      0.0000     -0.0000
         3         0.0327      0.2081      0.2553      0.0000      0.0000      0.0000
         4        -0.0000      0.0000     -0.0000      0.0000      0.0000      0.3657
         5        -0.0000      0.0000     -0.0000      0.0000      0.0000      0.5059
         6         0.2696      1.6166      0.5490      0.0000      0.0000     -0.0000
         7        -0.3453     -1.1815     -0.8014     -0.0000     -0.0000     -0.0000
         8        -0.0000      0.0000      0.0000     -0.5342     -0.0000     -0.0000
         9        -0.0000     -0.0000      0.0000     -0.0000     -0.0000     -0.6304
        10         0.0000     -0.0000     -0.0000     -0.0000      0.1577     -0.0000
 <0|del|b> * <b|rxdel|0> + <0|del|b> * <b|delr+rdel|0>
 Rotatory Strengths (R) in cgs (10**-40 erg-esu-cm/Gauss)
       state          XX          YY          ZZ    R(velocity)    E-M Angle
         1         0.0000      0.0000      0.0000      0.0000       90.00
         2         0.0000      0.0000      0.0000      0.0000       90.00
         3        -0.0000      0.0000      0.0000     -0.0000       90.00
         4         0.0000      0.0000     -0.0000      0.0000       90.00
         5         0.0000      0.0000     -0.0000     -0.0000       90.00
         6        -0.0000      0.0000     -0.0000      0.0000       90.00
         7        -0.0000      0.0000     -0.0000      0.0000       90.00
         8         0.0000     -0.0000      0.0000      0.0000       90.00
         9         0.0000     -0.0000      0.0000     -0.0000       90.00
        10        -0.0000      0.0000     -0.0000     -0.0000       90.00
 1/2[<0|r|b>*<b|rxdel|0> + (<0|rxdel|b>*<b|r|0>)*]
 Rotatory Strengths (R) in cgs (10**-40 erg-esu-cm/Gauss)
       state          XX          YY          ZZ     R(length)
         1        -0.0000     -0.0000     -0.0000     -0.0000
         2         0.0000      0.0000      0.0000      0.0000
         3        -0.0000      0.0000     -0.0000     -0.0000
         4         0.0000     -0.0000      0.0000     -0.0000
         5         0.0000     -0.0000      0.0000     -0.0000
         6        -0.0000     -0.0000      0.0000      0.0000
         7        -0.0000     -0.0000      0.0000      0.0000
         8         0.0000      0.0000      0.0000      0.0000
         9        -0.0000      0.0000     -0.0000     -0.0000
        10         0.0000     -0.0000     -0.0000      0.0000
  1/2[<0|del|b>*<b|r|0> + (<0|r|b>*<b|del|0>)*] (Au)
       state          X           Y           Z        Dip. S.   Osc.(frdel)
         1        -0.0317      0.0000     -0.0000      0.0317      0.0211
         2        -0.0000     -0.0000     -0.0000      0.0000      0.0000
         3        -0.0000     -0.0000     -0.1882      0.1882      0.1255
         4        -0.0000     -0.1645     -0.0000      0.1645      0.1097
         5         0.0000     -0.7202     -0.0000      0.7202      0.4801
         6        -0.0000      0.0000     -0.3431      0.3431      0.2288
         7        -0.0000      0.0000     -0.0182      0.0182      0.0122
         8        -0.0000     -0.0000     -0.0000      0.0000      0.0000
         9        -0.0000     -0.0623     -0.0000      0.0623      0.0415
        10        -0.1700     -0.0000     -0.0000      0.1700      0.1133

 Excitation energies and oscillator strengths:
 
 Excited State   1:      Singlet-B1     9.5207 eV  130.23 nm  f=0.0061  <S**2>=0.000
       5 ->  6         0.70435
 This state for optimization and/or second-order correction.
 Total Energy, E(TD-HF/TD-DFT) =  -75.2359315550    
 Copying the excited state density for this state as the 1-particle RhoCI density.
 
 Excited State   2:      Singlet-A2    11.4765 eV  108.03 nm  f=0.0000  <S**2>=0.000
       5 ->  7         0.70046
 
 Excited State   3:      Singlet-A1    11.8141 eV  104.95 nm  f=0.0829  <S**2>=0.000
       4 ->  6         0.70066
 
 Excited State   4:      Singlet-B2    13.9051 eV   89.16 nm  f=0.1063  <S**2>=0.000
       4 ->  7         0.69650
 
 Excited State   5:      Singlet-B2    16.1678 eV   76.69 nm  f=0.5087  <S**2>=0.000
       3 ->  6         0.69867
 
 Excited State   6:      Singlet-A1    20.3331 eV   60.98 nm  f=0.2577  <S**2>=0.000
       3 ->  7         0.69869
 
 Excited State   7:      Singlet-A1    33.3601 eV   37.17 nm  f=0.0091  <S**2>=0.000
       2 ->  6         0.69711
 
 Excited State   8:      Singlet-A2    34.0771 eV   36.38 nm  f=0.0000  <S**2>=0.000
       5 ->  8         0.70153
 
 Excited State   9:      Singlet-B2    35.2723 eV   35.15 nm  f=0.0430  <S**2>=0.000
       2 ->  7         0.68777
       4 ->  8        -0.13782
 
 Excited State  10:      Singlet-B1    35.5184 eV   34.91 nm  f=0.1942  <S**2>=0.000
       5 ->  9         0.69821
 SavETr:  write IOETrn=   770 NScale= 10 NData=  16 NLR=1 NState=   10 LETran=     190.

 **********************************************************************

            Population analysis using the SCF Density.

 **********************************************************************

 Orbital symmetries:
       Occupied  (A1) (A1) (B2) (A1) (B1)
       Virtual   (A1) (B2) (B2) (A1) (B1) (A1) (B2) (A1)
 The electronic state is 1-A1.
 Alpha  occ. eigenvalues --  -20.42410  -1.32206  -0.69197  -0.52705  -0.47640
 Alpha virt. eigenvalues --    0.26331   0.36340   1.22115   1.27317   1.78510
 Alpha virt. eigenvalues --    1.85832   2.02914   3.10431
     Molecular Orbital Coefficients:
                           1         2         3         4         5
                        (A1)--O   (A1)--O   (B2)--O   (A1)--O   (B1)--O
     Eigenvalues --   -20.42410  -1.32206  -0.69197  -0.52705  -0.47640
   1 1   O  1S          0.98322  -0.22978   0.00000  -0.08469   0.00000
   2        2S          0.09584   0.21801   0.00000   0.07878   0.00000
   3        2PX         0.00000   0.00000   0.00000   0.00000   0.52048
   4        2PY         0.00000   0.00000   0.39634   0.00000   0.00000
   5        2PZ        -0.00340  -0.07914   0.00000   0.44714   0.00000
   6        3S         -0.03786   0.70851   0.00000   0.38961   0.00000
   7        3PX         0.00000   0.00000   0.00000   0.00000   0.63286
   8        3PY         0.00000   0.00000   0.36729   0.00000   0.00000
   9        3PZ         0.00631  -0.08866   0.00000   0.51945   0.00000
  10 2   H  1S          0.00238   0.11640   0.23391  -0.12561   0.00000
  11        2S          0.00698   0.01993   0.17800  -0.10399   0.00000
  12 3   H  1S          0.00238   0.11640  -0.23391  -0.12561   0.00000
  13        2S          0.00698   0.01993  -0.17800  -0.10399   0.00000
                           6         7         8         9        10
                        (A1)--V   (B2)--V   (B2)--V   (A1)--V   (B1)--V
     Eigenvalues --     0.26331   0.36340   1.22115   1.27317   1.78510
   1 1   O  1S         -0.11147   0.00000   0.00000   0.06670   0.00000
   2        2S          0.03632   0.00000   0.00000  -0.08877   0.00000
   3        2PX         0.00000   0.00000   0.00000   0.00000   1.02968
   4        2PY         0.00000  -0.30164  -0.20553   0.00000   0.00000
   5        2PZ        -0.20303   0.00000   0.00000   0.24035   0.00000
   6        3S          1.05549   0.00000   0.00000  -0.11216   0.00000
   7        3PX         0.00000   0.00000   0.00000   0.00000  -0.96469
   8        3PY         0.00000  -0.78152  -0.46342   0.00000   0.00000
   9        3PZ        -0.44946   0.00000   0.00000   0.29741   0.00000
  10 2   H  1S         -0.05316   0.03008   0.97370   0.97865   0.00000
  11        2S         -0.86611   1.16418  -0.66195  -0.49361   0.00000
  12 3   H  1S         -0.05316  -0.03008  -0.97370   0.97865   0.00000
  13        2S         -0.86611  -1.16418   0.66195  -0.49361   0.00000
                          11        12        13
                        (A1)--V   (B2)--V   (A1)--V
     Eigenvalues --     1.85832   2.02914   3.10431
   1 1   O  1S          0.04030   0.00000   0.08685
   2        2S         -0.11650   0.00000  -1.64079
   3        2PX         0.00000   0.00000   0.00000
   4        2PY         0.00000  -1.06649   0.00000
   5        2PZ        -1.01850   0.00000   0.14680
   6        3S         -0.16776   0.00000   1.97828
   7        3PX         0.00000   0.00000   0.00000
   8        3PY         0.00000   1.43049   0.00000
   9        3PZ         1.12439   0.00000  -0.44807
  10 2   H  1S          0.22186  -0.17065  -0.25793
  11        2S          0.09908  -0.49370  -0.36610
  12 3   H  1S          0.22186   0.17065  -0.25793
  13        2S          0.09908   0.49370  -0.36610
     Density Matrix:
                           1         2         3         4         5
   1 1   O  1S          2.05338
   2        2S          0.07492   0.12584
   3        2PX         0.00000   0.00000   0.54181
   4        2PY         0.00000   0.00000   0.00000   0.31418
   5        2PZ        -0.04604   0.03529   0.00000   0.00000   0.41241
   6        3S         -0.46605   0.36306   0.00000   0.00000   0.23653
   7        3PX         0.00000   0.00000   0.65879   0.00000  -0.00000
   8        3PY         0.00000   0.00000   0.00000   0.29115   0.00000
   9        3PZ        -0.03483   0.04439   0.00000   0.00000   0.47852
  10 2   H  1S         -0.02754   0.03142  -0.00000   0.18542  -0.13077
  11        2S          0.02218  -0.00635  -0.00000   0.14110  -0.09619
  12 3   H  1S         -0.02754   0.03142   0.00000  -0.18542  -0.13077
  13        2S          0.02218  -0.00635   0.00000  -0.14110  -0.09619
                           6         7         8         9        10
   6        3S          1.31044
   7        3PX         0.00000   0.80103
   8        3PY         0.00000   0.00000   0.26981
   9        3PZ         0.27865   0.00000   0.00000   0.55545
  10 2   H  1S          0.06689  -0.00000   0.17183  -0.15110   0.16809
  11        2S         -0.05331  -0.00000   0.13075  -0.11148   0.11407
  12 3   H  1S          0.06689   0.00000  -0.17183  -0.15110  -0.05076
  13        2S         -0.05331   0.00000  -0.13075  -0.11148  -0.05247
                          11        12        13
  11        2S          0.08588
  12 3   H  1S         -0.05247   0.16809
  13        2S         -0.04085   0.11407   0.08588
    Full Mulliken population analysis:
                           1         2         3         4         5
   1 1   O  1S          2.05338
   2        2S          0.01567   0.12584
   3        2PX         0.00000   0.00000   0.54181
   4        2PY         0.00000   0.00000   0.00000   0.31418
   5        2PZ         0.00000   0.00000   0.00000   0.00000   0.41241
   6        3S         -0.08533   0.26867   0.00000   0.00000   0.00000
   7        3PX         0.00000   0.00000   0.32858   0.00000   0.00000
   8        3PY         0.00000   0.00000   0.00000   0.14522   0.00000
   9        3PZ         0.00000   0.00000   0.00000   0.00000   0.23867
  10 2   H  1S         -0.00062   0.00503   0.00000   0.03084   0.01537
  11        2S          0.00135  -0.00192   0.00000   0.01362   0.00656
  12 3   H  1S         -0.00062   0.00503   0.00000   0.03084   0.01537
  13        2S          0.00135  -0.00192   0.00000   0.01362   0.00656
                           6         7         8         9        10
   6        3S          1.31044
   7        3PX         0.00000   0.80103
   8        3PY         0.00000   0.00000   0.26981
   9        3PZ         0.00000   0.00000   0.00000   0.55545
  10 2   H  1S          0.02429   0.00000   0.07907   0.04914   0.16809
  11        2S         -0.03240   0.00000   0.04735   0.02853   0.07368
  12 3   H  1S          0.02429   0.00000   0.07907   0.04914  -0.00113
  13        2S         -0.03240   0.00000   0.04735   0.02853  -0.00899
                          11        12        13
  11        2S          0.08588
  12 3   H  1S         -0.00899   0.16809
  13        2S         -0.01828   0.07368   0.08588
     Gross orbital populations:
                           1
   1 1   O  1S          1.98518
   2        2S          0.41640
   3        2PX         0.87039
   4        2PY         0.54830
   5        2PZ         0.69494
   6        3S          1.47755
   7        3PX         1.12961
   8        3PY         0.66787
   9        3PZ         0.94947
  10 2   H  1S          0.43476
  11        2S          0.19538
  12 3   H  1S          0.43476
  13        2S          0.19538
          Condensed to atoms (all electrons):
               1          2          3
     1  O    8.207310   0.266203   0.266203
     2  H    0.266203   0.401327  -0.037389
     3  H    0.266203  -0.037389   0.401327
 Mulliken charges:
               1
     1  O   -0.739717
     2  H    0.369859
     3  H    0.369859
 Sum of Mulliken charges =  -0.00000
 Mulliken charges with hydrogens summed into heavy atoms:
               1
     1  O   -0.000000
 Electronic spatial extent (au):  <R**2>=             18.5141
 Charge=             -0.0000 electrons
 Dipole moment (field-independent basis, Debye):
    X=             -0.0000    Y=              0.0000    Z=             -2.3573  Tot=              2.3573
 Quadrupole moment (field-independent basis, Debye-Ang):
   XX=             -6.8230   YY=             -3.8987   ZZ=             -5.9169
   XY=              0.0000   XZ=              0.0000   YZ=              0.0000
 Traceless Quadrupole moment (field-independent basis, Debye-Ang):
   XX=             -1.2768   YY=              1.6475   ZZ=             -0.3707
   XY=              0.0000   XZ=              0.0000   YZ=              0.0000
 Octapole moment (field-independent basis, Debye-Ang**2):
  XXX=              0.0000  YYY=              0.0000  ZZZ=             -1.1675  XYY=             -0.0000
  XXY=             -0.0000  XXZ=             -0.3047  XZZ=             -0.0000  YZZ=              0.0000
  YYZ=             -1.2161  XYZ=             -0.0000
 Hexadecapole moment (field-independent basis, Debye-Ang**3):
 XXXX=             -4.1844 YYYY=             -5.2792 ZZZZ=             -5.2029 XXXY=             -0.0000
 XXXZ=             -0.0000 YYYX=             -0.0000 YYYZ=              0.0000 ZZZX=             -0.0000
 ZZZY=              0.0000 XXYY=             -1.8470 XXZZ=             -1.6025 YYZZ=             -1.4919
 XXYZ=              0.0000 YYXZ=              0.0000 ZZXY=             -0.0000
 N-N= 9.157115374017D+00 E-N=-1.980498343705D+02  KE= 7.544716199640D+01
 Symmetry A1   KE= 6.747174394928D+01
 Symmetry A2   KE= 0.000000000000D+00
 Symmetry B1   KE= 4.650603207419D+00
 Symmetry B2   KE= 3.324814839701D+00
 Orbital energies and kinetic energies (alpha):
                                 1                 2
   1         (A1)--O         -20.424104         28.925143
   2         (A1)--O          -1.322062          2.605551
   3         (B2)--O          -0.691972          1.662407
   4         (A1)--O          -0.527053          2.205178
   5         (B1)--O          -0.476398          2.325302
   6         (A1)--V           0.263312          1.246983
   7         (B2)--V           0.363401          1.242106
   8         (B2)--V           1.221147          2.515311
   9         (A1)--V           1.273171          2.889402
  10         (B1)--V           1.785101          5.030922
  11         (A1)--V           1.858321          5.039281
  12         (B2)--V           2.029139          5.262765
  13         (A1)--V           3.104313          6.414124
 Total kinetic energy from orbitals= 7.544716199640D+01

 Test job not archived.
 1\1\GINC-LAURENS-IMAC-2\SP\RTD-FC\3-21G\H2O1\ROOT\27-Jul-2022\0\\# td=
 (nstates=10) rhf/3-21g pop=full iop(3/33=1)\\Title Card Required\\0,1\
 O,0,0.,0.,0.11081188\H,0,0.,0.78397595,-0.44324754\H,0,0.,-0.78397595,
 -0.44324754\\Version=EM64M-G16RevB.01\State=1-A1\HF=-75.58581\RMSD=4.1
 30e-10\PG=C02V [C2(O1),SGV(H2)]\\@


 SCIENCE AND PEACE WILL TRIUMPH OVER IGNORANCE AND WAR

                          -- PASTEUR
 Job cpu time:       0 days  0 hours  0 minutes  0.7 seconds.
 Elapsed time:       0 days  0 hours  0 minutes  1.2 seconds.
 File lengths (MBytes):  RWF=      6 Int=      0 D2E=      0 Chk=      1 Scr=      1
 Normal termination of Gaussian 16 at Wed Jul 27 14:13:05 2022.
